
             +---------------------------------------------------+
             |                                                   |
             |                   WANNIER90                       |
             |                                                   |
             +---------------------------------------------------+
             |                                                   |
             |        Welcome to the Maximally-Localized         |
             |        Generalized Wannier Functions code         |
             |            http://www.wannier.org                 |
             |                                                   |
             |                                                   |
             |  Wannier90 Developer Group:                       |
             |    Giovanni Pizzi    (EPFL)                       |
             |    Valerio Vitale    (Cambridge)                  |
             |    David Vanderbilt  (Rutgers University)         |
             |    Nicola Marzari    (EPFL)                       |
             |    Ivo Souza         (Universidad del Pais Vasco) |
             |    Arash A. Mostofi  (Imperial College London)    |
             |    Jonathan R. Yates (University of Oxford)       |
             |                                                   |
             |  For the full list of Wannier90 3.x authors,      |
             |  please check the code documentation and the      |
             |  README on the GitHub page of the code            |
             |                                                   |
             |                                                   |
             |  Please cite                                      |
             |                                                   |
             |  [ref] "An updated version of Wannier90:          |
             |        A Tool for Obtaining Maximally Localised   |
             |        Wannier Functions", A. A. Mostofi,         |
             |        J. R. Yates, G. Pizzi, Y. S. Lee,          |
             |        I. Souza, D. Vanderbilt and N. Marzari,    |
             |        Comput. Phys. Commun. 185, 2309 (2014)     |
             |        http://dx.doi.org/10.1016/j.cpc.2014.05.003|
             |                                                   |
             |  in any publications arising from the use of      |
             |  this code. For the method please cite            |
             |                                                   |
             |  [ref] "Maximally Localized Generalised Wannier   |
             |         Functions for Composite Energy Bands"     |
             |         N. Marzari and D. Vanderbilt              |
             |         Phys. Rev. B 56 12847 (1997)              |
             |                                                   |
             |  [ref] "Maximally Localized Wannier Functions     |
             |         for Entangled Energy Bands"               |
             |         I. Souza, N. Marzari and D. Vanderbilt    |
             |         Phys. Rev. B 65 035109 (2001)             |
             |                                                   |
             |                                                   |
             | Copyright (c) 1996-2019                           |
             |        The Wannier90 Developer Group and          |
             |        individual contributors                    |
             |                                                   |
             |      Release: 3.0.0       27th February 2019      |
             |                                                   |
             | This program is free software; you can            |
             | redistribute it and/or modify it under the terms  |
             | of the GNU General Public License as published by |
             | the Free Software Foundation; either version 2 of |
             | the License, or (at your option) any later version|
             |                                                   |
             | This program is distributed in the hope that it   |
             | will be useful, but WITHOUT ANY WARRANTY; without |
             | even the implied warranty of MERCHANTABILITY or   |
             | FITNESS FOR A PARTICULAR PURPOSE. See the GNU     |
             | General Public License for more details.          |
             |                                                   |
             | You should have received a copy of the GNU General|
             | Public License along with this program; if not,   |
             | write to the Free Software Foundation, Inc.,      |
             | 675 Mass Ave, Cambridge, MA 02139, USA.           |
             |                                                   |
             +---------------------------------------------------+
             |    Execution started on 16Dec2021 at 10:04:20     |
             +---------------------------------------------------+
 
 ******************************************************************************
 * -> Using CODATA 2006 constant values                                       *
 *    (http://physics.nist.gov/cuu/Constants/index.html)                      *
 * -> Using Bohr value from CODATA                                            *
 ******************************************************************************
 

 Wannier90 is running in LIBRARY MODE

 Setting up k-point neighbours...


                                    ------
                                    SYSTEM
                                    ------

                              Lattice Vectors (Ang)
                    a_1    -2.179416   0.000000   2.179416
                    a_2     0.000000   2.179416   2.179416
                    a_3    -2.179416   2.179416   0.000000

                   Unit Cell Volume:      20.70383  (Ang^3)

                        Reciprocal-Space Vectors (Ang^-1)
                    b_1    -1.441483  -1.441483   1.441483
                    b_2     1.441483   1.441483   1.441483
                    b_3    -1.441483   1.441483  -1.441483
  
 *----------------------------------------------------------------------------*
 |   Site       Fractional Coordinate          Cartesian Coordinate (Ang)     |
 +----------------------------------------------------------------------------+
 | Si   1   0.00000   0.00000   0.00000   |    0.00000   0.00000   0.00000    |
 | C    1  -0.25000   0.75000  -0.25000   |    1.08971   1.08971   1.08971    |
 *----------------------------------------------------------------------------*
                                -----------
                                PROJECTIONS
                                -----------
  
 +----------------------------------------------------------------------------+
 |     Frac. Coord.   l mr  r        z-axis               x-axis          Z/a |
 +----------------------------------------------------------------------------+
 |  0.00  0.00  0.00 -3  1  1  0.000  0.000  1.000  1.000  0.000  0.000   1.0 |
 |  0.00  0.00  0.00 -3  2  1  0.000  0.000  1.000  1.000  0.000  0.000   1.0 |
 |  0.00  0.00  0.00 -3  3  1  0.000  0.000  1.000  1.000  0.000  0.000   1.0 |
 |  0.00  0.00  0.00 -3  4  1  0.000  0.000  1.000  1.000  0.000  0.000   1.0 |
 +----------------------------------------------------------------------------+
  
                                ------------
                                K-POINT GRID
                                ------------
  
             Grid size =  6 x  6 x  6      Total points =  216
  
 *----------------------------------------------------------------------------*
 | k-point      Fractional Coordinate        Cartesian Coordinate (Ang^-1)    |
 +----------------------------------------------------------------------------+
 |     1    0.00000   0.00000   0.00000   |    0.00000   0.00000   0.00000    |
 |     2    0.00000   0.00000   0.16667   |   -0.24025   0.24025  -0.24025    |
 |     3    0.00000   0.00000   0.33333   |   -0.48049   0.48049  -0.48049    |
 |     4    0.00000   0.00000   0.50000   |   -0.72074   0.72074  -0.72074    |
 |     5    0.00000   0.00000   0.66667   |   -0.96099   0.96099  -0.96099    |
 |     6    0.00000   0.00000   0.83333   |   -1.20124   1.20124  -1.20124    |
 |     7    0.00000   0.16667   0.00000   |    0.24025   0.24025   0.24025    |
 |     8    0.00000   0.16667   0.16667   |   -0.00000   0.48049  -0.00000    |
 |     9    0.00000   0.16667   0.33333   |   -0.24025   0.72074  -0.24025    |
 |    10    0.00000   0.16667   0.50000   |   -0.48049   0.96099  -0.48049    |
 |    11    0.00000   0.16667   0.66667   |   -0.72074   1.20124  -0.72074    |
 |    12    0.00000   0.16667   0.83333   |   -0.96099   1.44148  -0.96099    |
 |    13    0.00000   0.33333   0.00000   |    0.48049   0.48049   0.48049    |
 |    14    0.00000   0.33333   0.16667   |    0.24025   0.72074   0.24025    |
 |    15    0.00000   0.33333   0.33333   |    0.00000   0.96099   0.00000    |
 |    16    0.00000   0.33333   0.50000   |   -0.24025   1.20124  -0.24025    |
 |    17    0.00000   0.33333   0.66667   |   -0.48049   1.44148  -0.48049    |
 |    18    0.00000   0.33333   0.83333   |   -0.72074   1.68173  -0.72074    |
 |    19    0.00000   0.50000   0.00000   |    0.72074   0.72074   0.72074    |
 |    20    0.00000   0.50000   0.16667   |    0.48049   0.96099   0.48049    |
 |    21    0.00000   0.50000   0.33333   |    0.24025   1.20124   0.24025    |
 |    22    0.00000   0.50000   0.50000   |    0.00000   1.44148   0.00000    |
 |    23    0.00000   0.50000   0.66667   |   -0.24025   1.68173  -0.24025    |
 |    24    0.00000   0.50000   0.83333   |   -0.48049   1.92198  -0.48049    |
 |    25    0.00000   0.66667   0.00000   |    0.96099   0.96099   0.96099    |
 |    26    0.00000   0.66667   0.16667   |    0.72074   1.20124   0.72074    |
 |    27    0.00000   0.66667   0.33333   |    0.48049   1.44148   0.48049    |
 |    28    0.00000   0.66667   0.50000   |    0.24025   1.68173   0.24025    |
 |    29    0.00000   0.66667   0.66667   |    0.00000   1.92198   0.00000    |
 |    30    0.00000   0.66667   0.83333   |   -0.24025   2.16223  -0.24025    |
 |    31    0.00000   0.83333   0.00000   |    1.20124   1.20124   1.20124    |
 |    32    0.00000   0.83333   0.16667   |    0.96099   1.44148   0.96099    |
 |    33    0.00000   0.83333   0.33333   |    0.72074   1.68173   0.72074    |
 |    34    0.00000   0.83333   0.50000   |    0.48049   1.92198   0.48049    |
 |    35    0.00000   0.83333   0.66667   |    0.24025   2.16223   0.24025    |
 |    36    0.00000   0.83333   0.83333   |   -0.00000   2.40247  -0.00000    |
 |    37    0.16667   0.00000   0.00000   |   -0.24025  -0.24025   0.24025    |
 |    38    0.16667   0.00000   0.16667   |   -0.48049   0.00000  -0.00000    |
 |    39    0.16667   0.00000   0.33333   |   -0.72074   0.24025  -0.24025    |
 |    40    0.16667   0.00000   0.50000   |   -0.96099   0.48049  -0.48049    |
 |    41    0.16667   0.00000   0.66667   |   -1.20124   0.72074  -0.72074    |
 |    42    0.16667   0.00000   0.83333   |   -1.44148   0.96099  -0.96099    |
 |    43    0.16667   0.16667   0.00000   |    0.00000   0.00000   0.48049    |
 |    44    0.16667   0.16667   0.16667   |   -0.24025   0.24025   0.24025    |
 |    45    0.16667   0.16667   0.33333   |   -0.48049   0.48049   0.00000    |
 |    46    0.16667   0.16667   0.50000   |   -0.72074   0.72074  -0.24025    |
 |    47    0.16667   0.16667   0.66667   |   -0.96099   0.96099  -0.48049    |
 |    48    0.16667   0.16667   0.83333   |   -1.20124   1.20124  -0.72074    |
 |    49    0.16667   0.33333   0.00000   |    0.24025   0.24025   0.72074    |
 |    50    0.16667   0.33333   0.16667   |   -0.00000   0.48049   0.48049    |
 |    51    0.16667   0.33333   0.33333   |   -0.24025   0.72074   0.24025    |
 |    52    0.16667   0.33333   0.50000   |   -0.48049   0.96099   0.00000    |
 |    53    0.16667   0.33333   0.66667   |   -0.72074   1.20124  -0.24025    |
 |    54    0.16667   0.33333   0.83333   |   -0.96099   1.44148  -0.48049    |
 |    55    0.16667   0.50000   0.00000   |    0.48049   0.48049   0.96099    |
 |    56    0.16667   0.50000   0.16667   |    0.24025   0.72074   0.72074    |
 |    57    0.16667   0.50000   0.33333   |    0.00000   0.96099   0.48049    |
 |    58    0.16667   0.50000   0.50000   |   -0.24025   1.20124   0.24025    |
 |    59    0.16667   0.50000   0.66667   |   -0.48049   1.44148   0.00000    |
 |    60    0.16667   0.50000   0.83333   |   -0.72074   1.68173  -0.24025    |
 |    61    0.16667   0.66667   0.00000   |    0.72074   0.72074   1.20124    |
 |    62    0.16667   0.66667   0.16667   |    0.48049   0.96099   0.96099    |
 |    63    0.16667   0.66667   0.33333   |    0.24025   1.20124   0.72074    |
 |    64    0.16667   0.66667   0.50000   |    0.00000   1.44148   0.48049    |
 |    65    0.16667   0.66667   0.66667   |   -0.24025   1.68173   0.24025    |
 |    66    0.16667   0.66667   0.83333   |   -0.48049   1.92198   0.00000    |
 |    67    0.16667   0.83333   0.00000   |    0.96099   0.96099   1.44148    |
 |    68    0.16667   0.83333   0.16667   |    0.72074   1.20124   1.20124    |
 |    69    0.16667   0.83333   0.33333   |    0.48049   1.44148   0.96099    |
 |    70    0.16667   0.83333   0.50000   |    0.24025   1.68173   0.72074    |
 |    71    0.16667   0.83333   0.66667   |   -0.00000   1.92198   0.48049    |
 |    72    0.16667   0.83333   0.83333   |   -0.24025   2.16223   0.24025    |
 |    73    0.33333   0.00000   0.00000   |   -0.48049  -0.48049   0.48049    |
 |    74    0.33333   0.00000   0.16667   |   -0.72074  -0.24025   0.24025    |
 |    75    0.33333   0.00000   0.33333   |   -0.96099  -0.00000   0.00000    |
 |    76    0.33333   0.00000   0.50000   |   -1.20124   0.24025  -0.24025    |
 |    77    0.33333   0.00000   0.66667   |   -1.44148   0.48049  -0.48049    |
 |    78    0.33333   0.00000   0.83333   |   -1.68173   0.72074  -0.72074    |
 |    79    0.33333   0.16667   0.00000   |   -0.24025  -0.24025   0.72074    |
 |    80    0.33333   0.16667   0.16667   |   -0.48049   0.00000   0.48049    |
 |    81    0.33333   0.16667   0.33333   |   -0.72074   0.24025   0.24025    |
 |    82    0.33333   0.16667   0.50000   |   -0.96099   0.48049   0.00000    |
 |    83    0.33333   0.16667   0.66667   |   -1.20124   0.72074  -0.24025    |
 |    84    0.33333   0.16667   0.83333   |   -1.44148   0.96099  -0.48049    |
 |    85    0.33333   0.33333   0.00000   |    0.00000   0.00000   0.96099    |
 |    86    0.33333   0.33333   0.16667   |   -0.24025   0.24025   0.72074    |
 |    87    0.33333   0.33333   0.33333   |   -0.48049   0.48049   0.48049    |
 |    88    0.33333   0.33333   0.50000   |   -0.72074   0.72074   0.24025    |
 |    89    0.33333   0.33333   0.66667   |   -0.96099   0.96099  -0.00000    |
 |    90    0.33333   0.33333   0.83333   |   -1.20124   1.20124  -0.24025    |
 |    91    0.33333   0.50000   0.00000   |    0.24025   0.24025   1.20124    |
 |    92    0.33333   0.50000   0.16667   |   -0.00000   0.48049   0.96099    |
 |    93    0.33333   0.50000   0.33333   |   -0.24025   0.72074   0.72074    |
 |    94    0.33333   0.50000   0.50000   |   -0.48049   0.96099   0.48049    |
 |    95    0.33333   0.50000   0.66667   |   -0.72074   1.20124   0.24025    |
 |    96    0.33333   0.50000   0.83333   |   -0.96099   1.44148   0.00000    |
 |    97    0.33333   0.66667   0.00000   |    0.48049   0.48049   1.44148    |
 |    98    0.33333   0.66667   0.16667   |    0.24025   0.72074   1.20124    |
 |    99    0.33333   0.66667   0.33333   |    0.00000   0.96099   0.96099    |
 |   100    0.33333   0.66667   0.50000   |   -0.24025   1.20124   0.72074    |
 |   101    0.33333   0.66667   0.66667   |   -0.48049   1.44148   0.48049    |
 |   102    0.33333   0.66667   0.83333   |   -0.72074   1.68173   0.24025    |
 |   103    0.33333   0.83333   0.00000   |    0.72074   0.72074   1.68173    |
 |   104    0.33333   0.83333   0.16667   |    0.48049   0.96099   1.44148    |
 |   105    0.33333   0.83333   0.33333   |    0.24025   1.20124   1.20124    |
 |   106    0.33333   0.83333   0.50000   |   -0.00000   1.44148   0.96099    |
 |   107    0.33333   0.83333   0.66667   |   -0.24025   1.68173   0.72074    |
 |   108    0.33333   0.83333   0.83333   |   -0.48049   1.92198   0.48049    |
 |   109    0.50000   0.00000   0.00000   |   -0.72074  -0.72074   0.72074    |
 |   110    0.50000   0.00000   0.16667   |   -0.96099  -0.48049   0.48049    |
 |   111    0.50000   0.00000   0.33333   |   -1.20124  -0.24025   0.24025    |
 |   112    0.50000   0.00000   0.50000   |   -1.44148   0.00000   0.00000    |
 |   113    0.50000   0.00000   0.66667   |   -1.68173   0.24025  -0.24025    |
 |   114    0.50000   0.00000   0.83333   |   -1.92198   0.48049  -0.48049    |
 |   115    0.50000   0.16667   0.00000   |   -0.48049  -0.48049   0.96099    |
 |   116    0.50000   0.16667   0.16667   |   -0.72074  -0.24025   0.72074    |
 |   117    0.50000   0.16667   0.33333   |   -0.96099  -0.00000   0.48049    |
 |   118    0.50000   0.16667   0.50000   |   -1.20124   0.24025   0.24025    |
 |   119    0.50000   0.16667   0.66667   |   -1.44148   0.48049   0.00000    |
 |   120    0.50000   0.16667   0.83333   |   -1.68173   0.72074  -0.24025    |
 |   121    0.50000   0.33333   0.00000   |   -0.24025  -0.24025   1.20124    |
 |   122    0.50000   0.33333   0.16667   |   -0.48049   0.00000   0.96099    |
 |   123    0.50000   0.33333   0.33333   |   -0.72074   0.24025   0.72074    |
 |   124    0.50000   0.33333   0.50000   |   -0.96099   0.48049   0.48049    |
 |   125    0.50000   0.33333   0.66667   |   -1.20124   0.72074   0.24025    |
 |   126    0.50000   0.33333   0.83333   |   -1.44148   0.96099   0.00000    |
 |   127    0.50000   0.50000   0.00000   |    0.00000   0.00000   1.44148    |
 |   128    0.50000   0.50000   0.16667   |   -0.24025   0.24025   1.20124    |
 |   129    0.50000   0.50000   0.33333   |   -0.48049   0.48049   0.96099    |
 |   130    0.50000   0.50000   0.50000   |   -0.72074   0.72074   0.72074    |
 |   131    0.50000   0.50000   0.66667   |   -0.96099   0.96099   0.48049    |
 |   132    0.50000   0.50000   0.83333   |   -1.20124   1.20124   0.24025    |
 |   133    0.50000   0.66667   0.00000   |    0.24025   0.24025   1.68173    |
 |   134    0.50000   0.66667   0.16667   |    0.00000   0.48049   1.44148    |
 |   135    0.50000   0.66667   0.33333   |   -0.24025   0.72074   1.20124    |
 |   136    0.50000   0.66667   0.50000   |   -0.48049   0.96099   0.96099    |
 |   137    0.50000   0.66667   0.66667   |   -0.72074   1.20124   0.72074    |
 |   138    0.50000   0.66667   0.83333   |   -0.96099   1.44148   0.48049    |
 |   139    0.50000   0.83333   0.00000   |    0.48049   0.48049   1.92198    |
 |   140    0.50000   0.83333   0.16667   |    0.24025   0.72074   1.68173    |
 |   141    0.50000   0.83333   0.33333   |   -0.00000   0.96099   1.44148    |
 |   142    0.50000   0.83333   0.50000   |   -0.24025   1.20124   1.20124    |
 |   143    0.50000   0.83333   0.66667   |   -0.48049   1.44148   0.96099    |
 |   144    0.50000   0.83333   0.83333   |   -0.72074   1.68173   0.72074    |
 |   145    0.66667   0.00000   0.00000   |   -0.96099  -0.96099   0.96099    |
 |   146    0.66667   0.00000   0.16667   |   -1.20124  -0.72074   0.72074    |
 |   147    0.66667   0.00000   0.33333   |   -1.44148  -0.48049   0.48049    |
 |   148    0.66667   0.00000   0.50000   |   -1.68173  -0.24025   0.24025    |
 |   149    0.66667   0.00000   0.66667   |   -1.92198  -0.00000   0.00000    |
 |   150    0.66667   0.00000   0.83333   |   -2.16223   0.24025  -0.24025    |
 |   151    0.66667   0.16667   0.00000   |   -0.72074  -0.72074   1.20124    |
 |   152    0.66667   0.16667   0.16667   |   -0.96099  -0.48049   0.96099    |
 |   153    0.66667   0.16667   0.33333   |   -1.20124  -0.24025   0.72074    |
 |   154    0.66667   0.16667   0.50000   |   -1.44148   0.00000   0.48049    |
 |   155    0.66667   0.16667   0.66667   |   -1.68173   0.24025   0.24025    |
 |   156    0.66667   0.16667   0.83333   |   -1.92198   0.48049   0.00000    |
 |   157    0.66667   0.33333   0.00000   |   -0.48049  -0.48049   1.44148    |
 |   158    0.66667   0.33333   0.16667   |   -0.72074  -0.24025   1.20124    |
 |   159    0.66667   0.33333   0.33333   |   -0.96099  -0.00000   0.96099    |
 |   160    0.66667   0.33333   0.50000   |   -1.20124   0.24025   0.72074    |
 |   161    0.66667   0.33333   0.66667   |   -1.44148   0.48049   0.48049    |
 |   162    0.66667   0.33333   0.83333   |   -1.68173   0.72074   0.24025    |
 |   163    0.66667   0.50000   0.00000   |   -0.24025  -0.24025   1.68173    |
 |   164    0.66667   0.50000   0.16667   |   -0.48049  -0.00000   1.44148    |
 |   165    0.66667   0.50000   0.33333   |   -0.72074   0.24025   1.20124    |
 |   166    0.66667   0.50000   0.50000   |   -0.96099   0.48049   0.96099    |
 |   167    0.66667   0.50000   0.66667   |   -1.20124   0.72074   0.72074    |
 |   168    0.66667   0.50000   0.83333   |   -1.44148   0.96099   0.48049    |
 |   169    0.66667   0.66667   0.00000   |    0.00000   0.00000   1.92198    |
 |   170    0.66667   0.66667   0.16667   |   -0.24025   0.24025   1.68173    |
 |   171    0.66667   0.66667   0.33333   |   -0.48049   0.48049   1.44148    |
 |   172    0.66667   0.66667   0.50000   |   -0.72074   0.72074   1.20124    |
 |   173    0.66667   0.66667   0.66667   |   -0.96099   0.96099   0.96099    |
 |   174    0.66667   0.66667   0.83333   |   -1.20124   1.20124   0.72074    |
 |   175    0.66667   0.83333   0.00000   |    0.24025   0.24025   2.16223    |
 |   176    0.66667   0.83333   0.16667   |   -0.00000   0.48049   1.92198    |
 |   177    0.66667   0.83333   0.33333   |   -0.24025   0.72074   1.68173    |
 |   178    0.66667   0.83333   0.50000   |   -0.48049   0.96099   1.44148    |
 |   179    0.66667   0.83333   0.66667   |   -0.72074   1.20124   1.20124    |
 |   180    0.66667   0.83333   0.83333   |   -0.96099   1.44148   0.96099    |
 |   181    0.83333   0.00000   0.00000   |   -1.20124  -1.20124   1.20124    |
 |   182    0.83333   0.00000   0.16667   |   -1.44148  -0.96099   0.96099    |
 |   183    0.83333   0.00000   0.33333   |   -1.68173  -0.72074   0.72074    |
 |   184    0.83333   0.00000   0.50000   |   -1.92198  -0.48049   0.48049    |
 |   185    0.83333   0.00000   0.66667   |   -2.16223  -0.24025   0.24025    |
 |   186    0.83333   0.00000   0.83333   |   -2.40247   0.00000  -0.00000    |
 |   187    0.83333   0.16667   0.00000   |   -0.96099  -0.96099   1.44148    |
 |   188    0.83333   0.16667   0.16667   |   -1.20124  -0.72074   1.20124    |
 |   189    0.83333   0.16667   0.33333   |   -1.44148  -0.48049   0.96099    |
 |   190    0.83333   0.16667   0.50000   |   -1.68173  -0.24025   0.72074    |
 |   191    0.83333   0.16667   0.66667   |   -1.92198   0.00000   0.48049    |
 |   192    0.83333   0.16667   0.83333   |   -2.16223   0.24025   0.24025    |
 |   193    0.83333   0.33333   0.00000   |   -0.72074  -0.72074   1.68173    |
 |   194    0.83333   0.33333   0.16667   |   -0.96099  -0.48049   1.44148    |
 |   195    0.83333   0.33333   0.33333   |   -1.20124  -0.24025   1.20124    |
 |   196    0.83333   0.33333   0.50000   |   -1.44148   0.00000   0.96099    |
 |   197    0.83333   0.33333   0.66667   |   -1.68173   0.24025   0.72074    |
 |   198    0.83333   0.33333   0.83333   |   -1.92198   0.48049   0.48049    |
 |   199    0.83333   0.50000   0.00000   |   -0.48049  -0.48049   1.92198    |
 |   200    0.83333   0.50000   0.16667   |   -0.72074  -0.24025   1.68173    |
 |   201    0.83333   0.50000   0.33333   |   -0.96099   0.00000   1.44148    |
 |   202    0.83333   0.50000   0.50000   |   -1.20124   0.24025   1.20124    |
 |   203    0.83333   0.50000   0.66667   |   -1.44148   0.48049   0.96099    |
 |   204    0.83333   0.50000   0.83333   |   -1.68173   0.72074   0.72074    |
 |   205    0.83333   0.66667   0.00000   |   -0.24025  -0.24025   2.16223    |
 |   206    0.83333   0.66667   0.16667   |   -0.48049   0.00000   1.92198    |
 |   207    0.83333   0.66667   0.33333   |   -0.72074   0.24025   1.68173    |
 |   208    0.83333   0.66667   0.50000   |   -0.96099   0.48049   1.44148    |
 |   209    0.83333   0.66667   0.66667   |   -1.20124   0.72074   1.20124    |
 |   210    0.83333   0.66667   0.83333   |   -1.44148   0.96099   0.96099    |
 |   211    0.83333   0.83333   0.00000   |    0.00000   0.00000   2.40247    |
 |   212    0.83333   0.83333   0.16667   |   -0.24025   0.24025   2.16223    |
 |   213    0.83333   0.83333   0.33333   |   -0.48049   0.48049   1.92198    |
 |   214    0.83333   0.83333   0.50000   |   -0.72074   0.72074   1.68173    |
 |   215    0.83333   0.83333   0.66667   |   -0.96099   0.96099   1.44148    |
 |   216    0.83333   0.83333   0.83333   |   -1.20124   1.20124   1.20124    |
 *----------------------------------------------------------------------------*
  
  
 *---------------------------------- MAIN ------------------------------------*
 |  Number of Wannier Functions               :                 4             |
 |  Number of Objective Wannier Functions     :                 4             |
 |  Number of input Bloch states              :                 4             |
 |  Output verbosity (1=low, 5=high)          :                 2             |
 |  Timing Level (1=low, 5=high)              :                 1             |
 |  Optimisation (0=memory, 3=speed)          :                 3             |
 |  Length Unit                               :               Ang             |
 |  Post-processing setup (write *.nnkp)      :                 T             |
 |  Using Gamma-only branch of algorithms     :                 F             |
 *----------------------------------------------------------------------------*
 *------------------------------- WANNIERISE ---------------------------------*
 |  Total number of iterations                :               300             |
 |  Number of CG steps before reset           :                 5             |
 |  Trial step length for line search         :             2.000             |
 |  Convergence tolerence                     :         0.100E-09             |
 |  Convergence window                        :                -1             |
 |  Iterations between writing output         :                 1             |
 |  Iterations between backing up to disk     :               100             |
 |  Write r^2_nm to file                      :                 F             |
 |  Write xyz WF centres to file              :                 F             |
 |  Write on-site energies <0n|H|0n> to file  :                 F             |
 |  Use guiding centre to control phases      :                 F             |
 |  Use phases for initial projections        :                 F             |
 *----------------------------------------------------------------------------*
 Time to read parameters        0.004 (sec)

 *---------------------------------- K-MESH ----------------------------------*
 +----------------------------------------------------------------------------+
 |                    Distance to Nearest-Neighbour Shells                    |
 |                    ------------------------------------                    |
 |          Shell             Distance (Ang^-1)          Multiplicity         |
 |          -----             -----------------          ------------         |
 |             1                   0.416120                      8            |
 |             2                   0.480495                      6            |
 |             3                   0.679522                     12            |
 |             4                   0.796810                     24            |
 |             5                   0.832241                      8            |
 |             6                   0.960989                      6            |
 |             7                   1.047213                     24            |
 |             8                   1.074418                     24            |
 |             9                   1.176966                     24            |
 |            10                   1.248361                     32            |
 |            11                   1.359044                     12            |
 |            12                   1.421322                     48            |
 |            13                   1.441483                     30            |
 |            14                   1.519457                     24            |
 |            15                   1.575407                     24            |
 |            16                   1.593620                     24            |
 |            17                   1.664482                      8            |
 |            18                   1.715709                     48            |
 |            19                   1.732448                     24            |
 |            20                   1.797846                     48            |
 |            21                   1.845374                     72            |
 |            22                   1.921978                      6            |
 |            23                   1.966508                     24            |
 |            24                   1.981130                     48            |
 |            25                   2.038565                     36            |
 |            26                   2.080602                     56            |
 |            27                   2.094427                     24            |
 |            28                   2.148837                     24            |
 |            29                   2.188757                     72            |
 |            30                   2.201902                     48            |
 |            31                   2.253719                     24            |
 |            32                   2.291813                     48            |
 |            33                   2.353933                     24            |
 |            34                   2.390430                     72            |
 |            35                   2.402472                     30            |
 |            36                   2.450051                     72            |
 +----------------------------------------------------------------------------+
 | The b-vectors are chosen automatically                                     |
 | Shell:  1 w_b    2.1656744      (Ang^2)                                    |
 | The following shells are used:   1                                         |
 +----------------------------------------------------------------------------+
 |                        Shell   # Nearest-Neighbours                        |
 |                        -----   --------------------                        |
 |                          1               8                                 |
 +----------------------------------------------------------------------------+
 | Completeness relation is fully satisfied [Eq. (B1), PRB 56, 12847 (1997)]  |
 +----------------------------------------------------------------------------+
 |                  b_k Vectors (Ang^-1) and Weights (Ang^2)                  |
 |                  ----------------------------------------                  |
 |            No.         b_k(x)      b_k(y)      b_k(z)        w_b           |
 |            ---        --------------------------------     --------        |
 |             1        -0.240247    0.240247   -0.240247     2.165674        |
 |             2         0.240247    0.240247    0.240247     2.165674        |
 |             3        -0.240247   -0.240247    0.240247     2.165674        |
 |             4        -0.240247    0.240247    0.240247     2.165674        |
 |             5         0.240247   -0.240247    0.240247     2.165674        |
 |             6        -0.240247   -0.240247   -0.240247     2.165674        |
 |             7         0.240247    0.240247   -0.240247     2.165674        |
 |             8         0.240247   -0.240247   -0.240247     2.165674        |
 +----------------------------------------------------------------------------+
 |                           b_k Directions (Ang^-1)                          |
 |                           -----------------------                          |
 |            No.           x           y           z                         |
 |            ---        --------------------------------                     |
 |             1        -0.240247    0.240247   -0.240247                     |
 |             2         0.240247    0.240247    0.240247                     |
 |             3        -0.240247   -0.240247    0.240247                     |
 |             4        -0.240247    0.240247    0.240247                     |
 +----------------------------------------------------------------------------+
  
 Time to write kmesh            1.969 (sec)

 sic.nnkp written.
 Time to write kmesh            1.969 (sec)

 Finished setting up k-point neighbours.

 Exiting wannier_setup in wannier90 10:04:22 

 Resuming Wannier90 at 10:04:37 


                                    ------
                                    SYSTEM
                                    ------

                              Lattice Vectors (Ang)
                    a_1    -2.179416   0.000000   2.179416
                    a_2     0.000000   2.179416   2.179416
                    a_3    -2.179416   2.179416   0.000000

                   Unit Cell Volume:      20.70383  (Ang^3)

                        Reciprocal-Space Vectors (Ang^-1)
                    b_1    -1.441483  -1.441483   1.441483
                    b_2     1.441483   1.441483   1.441483
                    b_3    -1.441483   1.441483  -1.441483
  
 *----------------------------------------------------------------------------*
 |   Site       Fractional Coordinate          Cartesian Coordinate (Ang)     |
 +----------------------------------------------------------------------------+
 | Si   1   0.00000   0.00000   0.00000   |    0.00000   0.00000   0.00000    |
 | C    1  -0.25000   0.75000  -0.25000   |    1.08971   1.08971   1.08971    |
 *----------------------------------------------------------------------------*
                                -----------
                                PROJECTIONS
                                -----------
  
 +----------------------------------------------------------------------------+
 |     Frac. Coord.   l mr  r        z-axis               x-axis          Z/a |
 +----------------------------------------------------------------------------+
 |  0.00  0.00  0.00 -3  1  1  0.000  0.000  1.000  1.000  0.000  0.000   1.0 |
 |  0.00  0.00  0.00 -3  2  1  0.000  0.000  1.000  1.000  0.000  0.000   1.0 |
 |  0.00  0.00  0.00 -3  3  1  0.000  0.000  1.000  1.000  0.000  0.000   1.0 |
 |  0.00  0.00  0.00 -3  4  1  0.000  0.000  1.000  1.000  0.000  0.000   1.0 |
 +----------------------------------------------------------------------------+
  
                                ------------
                                K-POINT GRID
                                ------------
  
             Grid size =  6 x  6 x  6      Total points =  216
  
 *----------------------------------------------------------------------------*
 | k-point      Fractional Coordinate        Cartesian Coordinate (Ang^-1)    |
 +----------------------------------------------------------------------------+
 |     1    0.00000   0.00000   0.00000   |    0.00000   0.00000   0.00000    |
 |     2    0.00000   0.00000   0.16667   |   -0.24025   0.24025  -0.24025    |
 |     3    0.00000   0.00000   0.33333   |   -0.48049   0.48049  -0.48049    |
 |     4    0.00000   0.00000   0.50000   |   -0.72074   0.72074  -0.72074    |
 |     5    0.00000   0.00000   0.66667   |   -0.96099   0.96099  -0.96099    |
 |     6    0.00000   0.00000   0.83333   |   -1.20124   1.20124  -1.20124    |
 |     7    0.00000   0.16667   0.00000   |    0.24025   0.24025   0.24025    |
 |     8    0.00000   0.16667   0.16667   |   -0.00000   0.48049  -0.00000    |
 |     9    0.00000   0.16667   0.33333   |   -0.24025   0.72074  -0.24025    |
 |    10    0.00000   0.16667   0.50000   |   -0.48049   0.96099  -0.48049    |
 |    11    0.00000   0.16667   0.66667   |   -0.72074   1.20124  -0.72074    |
 |    12    0.00000   0.16667   0.83333   |   -0.96099   1.44148  -0.96099    |
 |    13    0.00000   0.33333   0.00000   |    0.48049   0.48049   0.48049    |
 |    14    0.00000   0.33333   0.16667   |    0.24025   0.72074   0.24025    |
 |    15    0.00000   0.33333   0.33333   |    0.00000   0.96099   0.00000    |
 |    16    0.00000   0.33333   0.50000   |   -0.24025   1.20124  -0.24025    |
 |    17    0.00000   0.33333   0.66667   |   -0.48049   1.44148  -0.48049    |
 |    18    0.00000   0.33333   0.83333   |   -0.72074   1.68173  -0.72074    |
 |    19    0.00000   0.50000   0.00000   |    0.72074   0.72074   0.72074    |
 |    20    0.00000   0.50000   0.16667   |    0.48049   0.96099   0.48049    |
 |    21    0.00000   0.50000   0.33333   |    0.24025   1.20124   0.24025    |
 |    22    0.00000   0.50000   0.50000   |    0.00000   1.44148   0.00000    |
 |    23    0.00000   0.50000   0.66667   |   -0.24025   1.68173  -0.24025    |
 |    24    0.00000   0.50000   0.83333   |   -0.48049   1.92198  -0.48049    |
 |    25    0.00000   0.66667   0.00000   |    0.96099   0.96099   0.96099    |
 |    26    0.00000   0.66667   0.16667   |    0.72074   1.20124   0.72074    |
 |    27    0.00000   0.66667   0.33333   |    0.48049   1.44148   0.48049    |
 |    28    0.00000   0.66667   0.50000   |    0.24025   1.68173   0.24025    |
 |    29    0.00000   0.66667   0.66667   |    0.00000   1.92198   0.00000    |
 |    30    0.00000   0.66667   0.83333   |   -0.24025   2.16223  -0.24025    |
 |    31    0.00000   0.83333   0.00000   |    1.20124   1.20124   1.20124    |
 |    32    0.00000   0.83333   0.16667   |    0.96099   1.44148   0.96099    |
 |    33    0.00000   0.83333   0.33333   |    0.72074   1.68173   0.72074    |
 |    34    0.00000   0.83333   0.50000   |    0.48049   1.92198   0.48049    |
 |    35    0.00000   0.83333   0.66667   |    0.24025   2.16223   0.24025    |
 |    36    0.00000   0.83333   0.83333   |   -0.00000   2.40247  -0.00000    |
 |    37    0.16667   0.00000   0.00000   |   -0.24025  -0.24025   0.24025    |
 |    38    0.16667   0.00000   0.16667   |   -0.48049   0.00000  -0.00000    |
 |    39    0.16667   0.00000   0.33333   |   -0.72074   0.24025  -0.24025    |
 |    40    0.16667   0.00000   0.50000   |   -0.96099   0.48049  -0.48049    |
 |    41    0.16667   0.00000   0.66667   |   -1.20124   0.72074  -0.72074    |
 |    42    0.16667   0.00000   0.83333   |   -1.44148   0.96099  -0.96099    |
 |    43    0.16667   0.16667   0.00000   |    0.00000   0.00000   0.48049    |
 |    44    0.16667   0.16667   0.16667   |   -0.24025   0.24025   0.24025    |
 |    45    0.16667   0.16667   0.33333   |   -0.48049   0.48049   0.00000    |
 |    46    0.16667   0.16667   0.50000   |   -0.72074   0.72074  -0.24025    |
 |    47    0.16667   0.16667   0.66667   |   -0.96099   0.96099  -0.48049    |
 |    48    0.16667   0.16667   0.83333   |   -1.20124   1.20124  -0.72074    |
 |    49    0.16667   0.33333   0.00000   |    0.24025   0.24025   0.72074    |
 |    50    0.16667   0.33333   0.16667   |   -0.00000   0.48049   0.48049    |
 |    51    0.16667   0.33333   0.33333   |   -0.24025   0.72074   0.24025    |
 |    52    0.16667   0.33333   0.50000   |   -0.48049   0.96099   0.00000    |
 |    53    0.16667   0.33333   0.66667   |   -0.72074   1.20124  -0.24025    |
 |    54    0.16667   0.33333   0.83333   |   -0.96099   1.44148  -0.48049    |
 |    55    0.16667   0.50000   0.00000   |    0.48049   0.48049   0.96099    |
 |    56    0.16667   0.50000   0.16667   |    0.24025   0.72074   0.72074    |
 |    57    0.16667   0.50000   0.33333   |    0.00000   0.96099   0.48049    |
 |    58    0.16667   0.50000   0.50000   |   -0.24025   1.20124   0.24025    |
 |    59    0.16667   0.50000   0.66667   |   -0.48049   1.44148   0.00000    |
 |    60    0.16667   0.50000   0.83333   |   -0.72074   1.68173  -0.24025    |
 |    61    0.16667   0.66667   0.00000   |    0.72074   0.72074   1.20124    |
 |    62    0.16667   0.66667   0.16667   |    0.48049   0.96099   0.96099    |
 |    63    0.16667   0.66667   0.33333   |    0.24025   1.20124   0.72074    |
 |    64    0.16667   0.66667   0.50000   |    0.00000   1.44148   0.48049    |
 |    65    0.16667   0.66667   0.66667   |   -0.24025   1.68173   0.24025    |
 |    66    0.16667   0.66667   0.83333   |   -0.48049   1.92198   0.00000    |
 |    67    0.16667   0.83333   0.00000   |    0.96099   0.96099   1.44148    |
 |    68    0.16667   0.83333   0.16667   |    0.72074   1.20124   1.20124    |
 |    69    0.16667   0.83333   0.33333   |    0.48049   1.44148   0.96099    |
 |    70    0.16667   0.83333   0.50000   |    0.24025   1.68173   0.72074    |
 |    71    0.16667   0.83333   0.66667   |   -0.00000   1.92198   0.48049    |
 |    72    0.16667   0.83333   0.83333   |   -0.24025   2.16223   0.24025    |
 |    73    0.33333   0.00000   0.00000   |   -0.48049  -0.48049   0.48049    |
 |    74    0.33333   0.00000   0.16667   |   -0.72074  -0.24025   0.24025    |
 |    75    0.33333   0.00000   0.33333   |   -0.96099  -0.00000   0.00000    |
 |    76    0.33333   0.00000   0.50000   |   -1.20124   0.24025  -0.24025    |
 |    77    0.33333   0.00000   0.66667   |   -1.44148   0.48049  -0.48049    |
 |    78    0.33333   0.00000   0.83333   |   -1.68173   0.72074  -0.72074    |
 |    79    0.33333   0.16667   0.00000   |   -0.24025  -0.24025   0.72074    |
 |    80    0.33333   0.16667   0.16667   |   -0.48049   0.00000   0.48049    |
 |    81    0.33333   0.16667   0.33333   |   -0.72074   0.24025   0.24025    |
 |    82    0.33333   0.16667   0.50000   |   -0.96099   0.48049   0.00000    |
 |    83    0.33333   0.16667   0.66667   |   -1.20124   0.72074  -0.24025    |
 |    84    0.33333   0.16667   0.83333   |   -1.44148   0.96099  -0.48049    |
 |    85    0.33333   0.33333   0.00000   |    0.00000   0.00000   0.96099    |
 |    86    0.33333   0.33333   0.16667   |   -0.24025   0.24025   0.72074    |
 |    87    0.33333   0.33333   0.33333   |   -0.48049   0.48049   0.48049    |
 |    88    0.33333   0.33333   0.50000   |   -0.72074   0.72074   0.24025    |
 |    89    0.33333   0.33333   0.66667   |   -0.96099   0.96099  -0.00000    |
 |    90    0.33333   0.33333   0.83333   |   -1.20124   1.20124  -0.24025    |
 |    91    0.33333   0.50000   0.00000   |    0.24025   0.24025   1.20124    |
 |    92    0.33333   0.50000   0.16667   |   -0.00000   0.48049   0.96099    |
 |    93    0.33333   0.50000   0.33333   |   -0.24025   0.72074   0.72074    |
 |    94    0.33333   0.50000   0.50000   |   -0.48049   0.96099   0.48049    |
 |    95    0.33333   0.50000   0.66667   |   -0.72074   1.20124   0.24025    |
 |    96    0.33333   0.50000   0.83333   |   -0.96099   1.44148   0.00000    |
 |    97    0.33333   0.66667   0.00000   |    0.48049   0.48049   1.44148    |
 |    98    0.33333   0.66667   0.16667   |    0.24025   0.72074   1.20124    |
 |    99    0.33333   0.66667   0.33333   |    0.00000   0.96099   0.96099    |
 |   100    0.33333   0.66667   0.50000   |   -0.24025   1.20124   0.72074    |
 |   101    0.33333   0.66667   0.66667   |   -0.48049   1.44148   0.48049    |
 |   102    0.33333   0.66667   0.83333   |   -0.72074   1.68173   0.24025    |
 |   103    0.33333   0.83333   0.00000   |    0.72074   0.72074   1.68173    |
 |   104    0.33333   0.83333   0.16667   |    0.48049   0.96099   1.44148    |
 |   105    0.33333   0.83333   0.33333   |    0.24025   1.20124   1.20124    |
 |   106    0.33333   0.83333   0.50000   |   -0.00000   1.44148   0.96099    |
 |   107    0.33333   0.83333   0.66667   |   -0.24025   1.68173   0.72074    |
 |   108    0.33333   0.83333   0.83333   |   -0.48049   1.92198   0.48049    |
 |   109    0.50000   0.00000   0.00000   |   -0.72074  -0.72074   0.72074    |
 |   110    0.50000   0.00000   0.16667   |   -0.96099  -0.48049   0.48049    |
 |   111    0.50000   0.00000   0.33333   |   -1.20124  -0.24025   0.24025    |
 |   112    0.50000   0.00000   0.50000   |   -1.44148   0.00000   0.00000    |
 |   113    0.50000   0.00000   0.66667   |   -1.68173   0.24025  -0.24025    |
 |   114    0.50000   0.00000   0.83333   |   -1.92198   0.48049  -0.48049    |
 |   115    0.50000   0.16667   0.00000   |   -0.48049  -0.48049   0.96099    |
 |   116    0.50000   0.16667   0.16667   |   -0.72074  -0.24025   0.72074    |
 |   117    0.50000   0.16667   0.33333   |   -0.96099  -0.00000   0.48049    |
 |   118    0.50000   0.16667   0.50000   |   -1.20124   0.24025   0.24025    |
 |   119    0.50000   0.16667   0.66667   |   -1.44148   0.48049   0.00000    |
 |   120    0.50000   0.16667   0.83333   |   -1.68173   0.72074  -0.24025    |
 |   121    0.50000   0.33333   0.00000   |   -0.24025  -0.24025   1.20124    |
 |   122    0.50000   0.33333   0.16667   |   -0.48049   0.00000   0.96099    |
 |   123    0.50000   0.33333   0.33333   |   -0.72074   0.24025   0.72074    |
 |   124    0.50000   0.33333   0.50000   |   -0.96099   0.48049   0.48049    |
 |   125    0.50000   0.33333   0.66667   |   -1.20124   0.72074   0.24025    |
 |   126    0.50000   0.33333   0.83333   |   -1.44148   0.96099   0.00000    |
 |   127    0.50000   0.50000   0.00000   |    0.00000   0.00000   1.44148    |
 |   128    0.50000   0.50000   0.16667   |   -0.24025   0.24025   1.20124    |
 |   129    0.50000   0.50000   0.33333   |   -0.48049   0.48049   0.96099    |
 |   130    0.50000   0.50000   0.50000   |   -0.72074   0.72074   0.72074    |
 |   131    0.50000   0.50000   0.66667   |   -0.96099   0.96099   0.48049    |
 |   132    0.50000   0.50000   0.83333   |   -1.20124   1.20124   0.24025    |
 |   133    0.50000   0.66667   0.00000   |    0.24025   0.24025   1.68173    |
 |   134    0.50000   0.66667   0.16667   |    0.00000   0.48049   1.44148    |
 |   135    0.50000   0.66667   0.33333   |   -0.24025   0.72074   1.20124    |
 |   136    0.50000   0.66667   0.50000   |   -0.48049   0.96099   0.96099    |
 |   137    0.50000   0.66667   0.66667   |   -0.72074   1.20124   0.72074    |
 |   138    0.50000   0.66667   0.83333   |   -0.96099   1.44148   0.48049    |
 |   139    0.50000   0.83333   0.00000   |    0.48049   0.48049   1.92198    |
 |   140    0.50000   0.83333   0.16667   |    0.24025   0.72074   1.68173    |
 |   141    0.50000   0.83333   0.33333   |   -0.00000   0.96099   1.44148    |
 |   142    0.50000   0.83333   0.50000   |   -0.24025   1.20124   1.20124    |
 |   143    0.50000   0.83333   0.66667   |   -0.48049   1.44148   0.96099    |
 |   144    0.50000   0.83333   0.83333   |   -0.72074   1.68173   0.72074    |
 |   145    0.66667   0.00000   0.00000   |   -0.96099  -0.96099   0.96099    |
 |   146    0.66667   0.00000   0.16667   |   -1.20124  -0.72074   0.72074    |
 |   147    0.66667   0.00000   0.33333   |   -1.44148  -0.48049   0.48049    |
 |   148    0.66667   0.00000   0.50000   |   -1.68173  -0.24025   0.24025    |
 |   149    0.66667   0.00000   0.66667   |   -1.92198  -0.00000   0.00000    |
 |   150    0.66667   0.00000   0.83333   |   -2.16223   0.24025  -0.24025    |
 |   151    0.66667   0.16667   0.00000   |   -0.72074  -0.72074   1.20124    |
 |   152    0.66667   0.16667   0.16667   |   -0.96099  -0.48049   0.96099    |
 |   153    0.66667   0.16667   0.33333   |   -1.20124  -0.24025   0.72074    |
 |   154    0.66667   0.16667   0.50000   |   -1.44148   0.00000   0.48049    |
 |   155    0.66667   0.16667   0.66667   |   -1.68173   0.24025   0.24025    |
 |   156    0.66667   0.16667   0.83333   |   -1.92198   0.48049   0.00000    |
 |   157    0.66667   0.33333   0.00000   |   -0.48049  -0.48049   1.44148    |
 |   158    0.66667   0.33333   0.16667   |   -0.72074  -0.24025   1.20124    |
 |   159    0.66667   0.33333   0.33333   |   -0.96099  -0.00000   0.96099    |
 |   160    0.66667   0.33333   0.50000   |   -1.20124   0.24025   0.72074    |
 |   161    0.66667   0.33333   0.66667   |   -1.44148   0.48049   0.48049    |
 |   162    0.66667   0.33333   0.83333   |   -1.68173   0.72074   0.24025    |
 |   163    0.66667   0.50000   0.00000   |   -0.24025  -0.24025   1.68173    |
 |   164    0.66667   0.50000   0.16667   |   -0.48049  -0.00000   1.44148    |
 |   165    0.66667   0.50000   0.33333   |   -0.72074   0.24025   1.20124    |
 |   166    0.66667   0.50000   0.50000   |   -0.96099   0.48049   0.96099    |
 |   167    0.66667   0.50000   0.66667   |   -1.20124   0.72074   0.72074    |
 |   168    0.66667   0.50000   0.83333   |   -1.44148   0.96099   0.48049    |
 |   169    0.66667   0.66667   0.00000   |    0.00000   0.00000   1.92198    |
 |   170    0.66667   0.66667   0.16667   |   -0.24025   0.24025   1.68173    |
 |   171    0.66667   0.66667   0.33333   |   -0.48049   0.48049   1.44148    |
 |   172    0.66667   0.66667   0.50000   |   -0.72074   0.72074   1.20124    |
 |   173    0.66667   0.66667   0.66667   |   -0.96099   0.96099   0.96099    |
 |   174    0.66667   0.66667   0.83333   |   -1.20124   1.20124   0.72074    |
 |   175    0.66667   0.83333   0.00000   |    0.24025   0.24025   2.16223    |
 |   176    0.66667   0.83333   0.16667   |   -0.00000   0.48049   1.92198    |
 |   177    0.66667   0.83333   0.33333   |   -0.24025   0.72074   1.68173    |
 |   178    0.66667   0.83333   0.50000   |   -0.48049   0.96099   1.44148    |
 |   179    0.66667   0.83333   0.66667   |   -0.72074   1.20124   1.20124    |
 |   180    0.66667   0.83333   0.83333   |   -0.96099   1.44148   0.96099    |
 |   181    0.83333   0.00000   0.00000   |   -1.20124  -1.20124   1.20124    |
 |   182    0.83333   0.00000   0.16667   |   -1.44148  -0.96099   0.96099    |
 |   183    0.83333   0.00000   0.33333   |   -1.68173  -0.72074   0.72074    |
 |   184    0.83333   0.00000   0.50000   |   -1.92198  -0.48049   0.48049    |
 |   185    0.83333   0.00000   0.66667   |   -2.16223  -0.24025   0.24025    |
 |   186    0.83333   0.00000   0.83333   |   -2.40247   0.00000  -0.00000    |
 |   187    0.83333   0.16667   0.00000   |   -0.96099  -0.96099   1.44148    |
 |   188    0.83333   0.16667   0.16667   |   -1.20124  -0.72074   1.20124    |
 |   189    0.83333   0.16667   0.33333   |   -1.44148  -0.48049   0.96099    |
 |   190    0.83333   0.16667   0.50000   |   -1.68173  -0.24025   0.72074    |
 |   191    0.83333   0.16667   0.66667   |   -1.92198   0.00000   0.48049    |
 |   192    0.83333   0.16667   0.83333   |   -2.16223   0.24025   0.24025    |
 |   193    0.83333   0.33333   0.00000   |   -0.72074  -0.72074   1.68173    |
 |   194    0.83333   0.33333   0.16667   |   -0.96099  -0.48049   1.44148    |
 |   195    0.83333   0.33333   0.33333   |   -1.20124  -0.24025   1.20124    |
 |   196    0.83333   0.33333   0.50000   |   -1.44148   0.00000   0.96099    |
 |   197    0.83333   0.33333   0.66667   |   -1.68173   0.24025   0.72074    |
 |   198    0.83333   0.33333   0.83333   |   -1.92198   0.48049   0.48049    |
 |   199    0.83333   0.50000   0.00000   |   -0.48049  -0.48049   1.92198    |
 |   200    0.83333   0.50000   0.16667   |   -0.72074  -0.24025   1.68173    |
 |   201    0.83333   0.50000   0.33333   |   -0.96099   0.00000   1.44148    |
 |   202    0.83333   0.50000   0.50000   |   -1.20124   0.24025   1.20124    |
 |   203    0.83333   0.50000   0.66667   |   -1.44148   0.48049   0.96099    |
 |   204    0.83333   0.50000   0.83333   |   -1.68173   0.72074   0.72074    |
 |   205    0.83333   0.66667   0.00000   |   -0.24025  -0.24025   2.16223    |
 |   206    0.83333   0.66667   0.16667   |   -0.48049   0.00000   1.92198    |
 |   207    0.83333   0.66667   0.33333   |   -0.72074   0.24025   1.68173    |
 |   208    0.83333   0.66667   0.50000   |   -0.96099   0.48049   1.44148    |
 |   209    0.83333   0.66667   0.66667   |   -1.20124   0.72074   1.20124    |
 |   210    0.83333   0.66667   0.83333   |   -1.44148   0.96099   0.96099    |
 |   211    0.83333   0.83333   0.00000   |    0.00000   0.00000   2.40247    |
 |   212    0.83333   0.83333   0.16667   |   -0.24025   0.24025   2.16223    |
 |   213    0.83333   0.83333   0.33333   |   -0.48049   0.48049   1.92198    |
 |   214    0.83333   0.83333   0.50000   |   -0.72074   0.72074   1.68173    |
 |   215    0.83333   0.83333   0.66667   |   -0.96099   0.96099   1.44148    |
 |   216    0.83333   0.83333   0.83333   |   -1.20124   1.20124   1.20124    |
 *----------------------------------------------------------------------------*
  
  
 *---------------------------------- MAIN ------------------------------------*
 |  Number of Wannier Functions               :                 4             |
 |  Number of Objective Wannier Functions     :                 4             |
 |  Number of input Bloch states              :                 4             |
 |  Output verbosity (1=low, 5=high)          :                 2             |
 |  Timing Level (1=low, 5=high)              :                 1             |
 |  Optimisation (0=memory, 3=speed)          :                 3             |
 |  Length Unit                               :               Ang             |
 |  Post-processing setup (write *.nnkp)      :                 T             |
 |  Using Gamma-only branch of algorithms     :                 F             |
 *----------------------------------------------------------------------------*
 *------------------------------- WANNIERISE ---------------------------------*
 |  Total number of iterations                :               300             |
 |  Number of CG steps before reset           :                 5             |
 |  Trial step length for line search         :             2.000             |
 |  Convergence tolerence                     :         0.100E-09             |
 |  Convergence window                        :                -1             |
 |  Iterations between writing output         :                 1             |
 |  Iterations between backing up to disk     :               100             |
 |  Write r^2_nm to file                      :                 F             |
 |  Write xyz WF centres to file              :                 F             |
 |  Write on-site energies <0n|H|0n> to file  :                 F             |
 |  Use guiding centre to control phases      :                 F             |
 |  Use phases for initial projections        :                 F             |
 *----------------------------------------------------------------------------*
 Time to read parameters        0.002 (sec)

 *---------------------------------- K-MESH ----------------------------------*
 +----------------------------------------------------------------------------+
 |                    Distance to Nearest-Neighbour Shells                    |
 |                    ------------------------------------                    |
 |          Shell             Distance (Ang^-1)          Multiplicity         |
 |          -----             -----------------          ------------         |
 |             1                   0.416120                      8            |
 |             2                   0.480495                      6            |
 |             3                   0.679522                     12            |
 |             4                   0.796810                     24            |
 |             5                   0.832241                      8            |
 |             6                   0.960989                      6            |
 |             7                   1.047213                     24            |
 |             8                   1.074418                     24            |
 |             9                   1.176966                     24            |
 |            10                   1.248361                     32            |
 |            11                   1.359044                     12            |
 |            12                   1.421322                     48            |
 |            13                   1.441483                     30            |
 |            14                   1.519457                     24            |
 |            15                   1.575407                     24            |
 |            16                   1.593620                     24            |
 |            17                   1.664482                      8            |
 |            18                   1.715709                     48            |
 |            19                   1.732448                     24            |
 |            20                   1.797846                     48            |
 |            21                   1.845374                     72            |
 |            22                   1.921978                      6            |
 |            23                   1.966508                     24            |
 |            24                   1.981130                     48            |
 |            25                   2.038565                     36            |
 |            26                   2.080602                     56            |
 |            27                   2.094427                     24            |
 |            28                   2.148837                     24            |
 |            29                   2.188757                     72            |
 |            30                   2.201902                     48            |
 |            31                   2.253719                     24            |
 |            32                   2.291813                     48            |
 |            33                   2.353933                     24            |
 |            34                   2.390430                     72            |
 |            35                   2.402472                     30            |
 |            36                   2.450051                     72            |
 +----------------------------------------------------------------------------+
 | The b-vectors are chosen automatically                                     |
 | Shell:  1 w_b    2.1656744      (Ang^2)                                    |
 | The following shells are used:   1                                         |
 +----------------------------------------------------------------------------+
 |                        Shell   # Nearest-Neighbours                        |
 |                        -----   --------------------                        |
 |                          1               8                                 |
 +----------------------------------------------------------------------------+
 | Completeness relation is fully satisfied [Eq. (B1), PRB 56, 12847 (1997)]  |
 +----------------------------------------------------------------------------+
 |                  b_k Vectors (Ang^-1) and Weights (Ang^2)                  |
 |                  ----------------------------------------                  |
 |            No.         b_k(x)      b_k(y)      b_k(z)        w_b           |
 |            ---        --------------------------------     --------        |
 |             1        -0.240247    0.240247   -0.240247     2.165674        |
 |             2         0.240247    0.240247    0.240247     2.165674        |
 |             3        -0.240247   -0.240247    0.240247     2.165674        |
 |             4        -0.240247    0.240247    0.240247     2.165674        |
 |             5         0.240247   -0.240247    0.240247     2.165674        |
 |             6        -0.240247   -0.240247   -0.240247     2.165674        |
 |             7         0.240247    0.240247   -0.240247     2.165674        |
 |             8         0.240247   -0.240247   -0.240247     2.165674        |
 +----------------------------------------------------------------------------+
 |                           b_k Directions (Ang^-1)                          |
 |                           -----------------------                          |
 |            No.           x           y           z                         |
 |            ---        --------------------------------                     |
 |             1        -0.240247    0.240247   -0.240247                     |
 |             2         0.240247    0.240247    0.240247                     |
 |             3        -0.240247   -0.240247    0.240247                     |
 |             4        -0.240247    0.240247    0.240247                     |
 +----------------------------------------------------------------------------+
  
 Time to get kmesh              2.162 (sec)
 Time to project overlaps       0.004 (sec)

 *------------------------------- WANNIERISE ---------------------------------*
 +--------------------------------------------------------------------+<-- CONV
 | Iter  Delta Spread     RMS Gradient      Spread (Ang^2)      Time  |<-- CONV
 +--------------------------------------------------------------------+<-- CONV

 ------------------------------------------------------------------------------
 Initial State
  WF centre and spread    1  (  0.705741,  0.705741,  0.705741 )     1.61644593
  WF centre and spread    2  (  0.705741, -0.705741, -0.705741 )     1.61644594
  WF centre and spread    3  ( -0.705741,  0.705741, -0.705741 )     1.61644593
  WF centre and spread    4  ( -0.705741, -0.705741,  0.705741 )     1.61644592
  Sum of centres and spreads ( -0.000000,  0.000000, -0.000000 )     6.46578373

      0     0.647E+01     0.0000000000        6.4657834865       0.00  <-- CONV
        O_D=      1.5540746 O_OD=      1.0742020 O_TOT=      6.4657835 <-- SPRD
 ------------------------------------------------------------------------------
 Cycle:      1
  WF centre and spread    1  (  0.708908,  0.708908,  0.708908 )     1.24685724
  WF centre and spread    2  (  0.708908, -0.708908, -0.708908 )     1.24685725
  WF centre and spread    3  ( -0.708908,  0.708908, -0.708908 )     1.24685724
  WF centre and spread    4  ( -0.708908, -0.708908,  0.708908 )     1.24685723
  Sum of centres and spreads ( -0.000000,  0.000000, -0.000000 )     4.98742896

      1    -0.148E+01     0.6007982827        4.9874287178       0.01  <-- CONV
        O_D=      0.3597542 O_OD=      0.7901676 O_TOT=      4.9874287 <-- SPRD
 Delta: O_D= -0.1194320E+01 O_OD= -0.2840344E+00 O_TOT= -0.1478355E+01 <-- DLTA
 ------------------------------------------------------------------------------
 Cycle:      2
  WF centre and spread    1  (  0.709895,  0.709895,  0.709895 )     1.13766172
  WF centre and spread    2  (  0.709895, -0.709895, -0.709895 )     1.13766173
  WF centre and spread    3  ( -0.709895,  0.709895, -0.709895 )     1.13766172
  WF centre and spread    4  ( -0.709895, -0.709895,  0.709895 )     1.13766172
  Sum of centres and spreads ( -0.000000,  0.000000, -0.000000 )     4.55064690

      2    -0.437E+00     0.4035909976        4.5506466561       0.02  <-- CONV
        O_D=      0.0419288 O_OD=      0.6712109 O_TOT=      4.5506467 <-- SPRD
 Delta: O_D= -0.3178254E+00 O_OD= -0.1189567E+00 O_TOT= -0.4367821E+00 <-- DLTA
 ------------------------------------------------------------------------------
 Cycle:      3
  WF centre and spread    1  (  0.710168,  0.710168,  0.710168 )     1.12034740
  WF centre and spread    2  (  0.710168, -0.710168, -0.710168 )     1.12034741
  WF centre and spread    3  ( -0.710168,  0.710168, -0.710168 )     1.12034740
  WF centre and spread    4  ( -0.710168, -0.710168,  0.710168 )     1.12034739
  Sum of centres and spreads ( -0.000000,  0.000000, -0.000000 )     4.48138961

      3    -0.693E-01     0.2017094741        4.4813893660       0.03  <-- CONV
        O_D=      0.0122391 O_OD=      0.6316434 O_TOT=      4.4813894 <-- SPRD
 Delta: O_D= -0.2968975E-01 O_OD= -0.3956754E-01 O_TOT= -0.6925729E-01 <-- DLTA
 ------------------------------------------------------------------------------
 Cycle:      4
  WF centre and spread    1  (  0.710363,  0.710363,  0.710363 )     1.11551472
  WF centre and spread    2  (  0.710363, -0.710363, -0.710363 )     1.11551473
  WF centre and spread    3  ( -0.710363,  0.710363, -0.710363 )     1.11551472
  WF centre and spread    4  ( -0.710363, -0.710363,  0.710363 )     1.11551472
  Sum of centres and spreads ( -0.000000,  0.000000, -0.000000 )     4.46205889

      4    -0.193E-01     0.0964128532        4.4620586479       0.04  <-- CONV
        O_D=      0.0086351 O_OD=      0.6159167 O_TOT=      4.4620586 <-- SPRD
 Delta: O_D= -0.3603996E-02 O_OD= -0.1572672E-01 O_TOT= -0.1933072E-01 <-- DLTA
 ------------------------------------------------------------------------------
 Cycle:      5
  WF centre and spread    1  (  0.710506,  0.710506,  0.710506 )     1.11364603
  WF centre and spread    2  (  0.710506, -0.710506, -0.710506 )     1.11364604
  WF centre and spread    3  ( -0.710506,  0.710506, -0.710506 )     1.11364603
  WF centre and spread    4  ( -0.710506, -0.710506,  0.710506 )     1.11364602
  Sum of centres and spreads ( -0.000000,  0.000000, -0.000000 )     4.45458412

      5    -0.747E-02     0.0577019099        4.4545838810       0.05  <-- CONV
        O_D=      0.0058968 O_OD=      0.6111801 O_TOT=      4.4545839 <-- SPRD
 Delta: O_D= -0.2738242E-02 O_OD= -0.4736525E-02 O_TOT= -0.7474767E-02 <-- DLTA
 ------------------------------------------------------------------------------
 Cycle:      6
  WF centre and spread    1  (  0.710588,  0.710588,  0.710588 )     1.11293480
  WF centre and spread    2  (  0.710588, -0.710588, -0.710588 )     1.11293481
  WF centre and spread    3  ( -0.710588,  0.710588, -0.710588 )     1.11293479
  WF centre and spread    4  ( -0.710588, -0.710588,  0.710588 )     1.11293479
  Sum of centres and spreads ( -0.000000,  0.000000, -0.000000 )     4.45173918

      6    -0.284E-02     0.0368368116        4.4517389405       0.06  <-- CONV
        O_D=      0.0045300 O_OD=      0.6097020 O_TOT=      4.4517389 <-- SPRD
 Delta: O_D= -0.1366838E-02 O_OD= -0.1478102E-02 O_TOT= -0.2844941E-02 <-- DLTA
 ------------------------------------------------------------------------------
 Cycle:      7
  WF centre and spread    1  (  0.710596,  0.710596,  0.710596 )     1.11280539
  WF centre and spread    2  (  0.710596, -0.710596, -0.710596 )     1.11280540
  WF centre and spread    3  ( -0.710596,  0.710596, -0.710596 )     1.11280539
  WF centre and spread    4  ( -0.710596, -0.710596,  0.710596 )     1.11280539
  Sum of centres and spreads ( -0.000000,  0.000000, -0.000000 )     4.45122157

      7    -0.518E-03     0.0173124542        4.4512213285       0.07  <-- CONV
        O_D=      0.0043037 O_OD=      0.6094107 O_TOT=      4.4512213 <-- SPRD
 Delta: O_D= -0.2263062E-03 O_OD= -0.2913059E-03 O_TOT= -0.5176120E-03 <-- DLTA
 ------------------------------------------------------------------------------
 Cycle:      8
  WF centre and spread    1  (  0.710605,  0.710605,  0.710605 )     1.11276531
  WF centre and spread    2  (  0.710605, -0.710605, -0.710605 )     1.11276532
  WF centre and spread    3  ( -0.710605,  0.710605, -0.710605 )     1.11276530
  WF centre and spread    4  ( -0.710605, -0.710605,  0.710605 )     1.11276530
  Sum of centres and spreads ( -0.000000,  0.000000, -0.000000 )     4.45106122

      8    -0.160E-03     0.0091533621        4.4510609818       0.08  <-- CONV
        O_D=      0.0042474 O_OD=      0.6093066 O_TOT=      4.4510610 <-- SPRD
 Delta: O_D= -0.5627280E-04 O_OD= -0.1040738E-03 O_TOT= -0.1603466E-03 <-- DLTA
 ------------------------------------------------------------------------------
 Cycle:      9
  WF centre and spread    1  (  0.710610,  0.710610,  0.710610 )     1.11275467
  WF centre and spread    2  (  0.710610, -0.710610, -0.710610 )     1.11275468
  WF centre and spread    3  ( -0.710610,  0.710610, -0.710610 )     1.11275467
  WF centre and spread    4  ( -0.710610, -0.710610,  0.710610 )     1.11275466
  Sum of centres and spreads ( -0.000000,  0.000000, -0.000000 )     4.45101868

      9    -0.425E-04     0.0044728309        4.4510184387       0.09  <-- CONV
        O_D=      0.0042246 O_OD=      0.6092869 O_TOT=      4.4510184 <-- SPRD
 Delta: O_D= -0.2277696E-04 O_OD= -0.1976618E-04 O_TOT= -0.4254313E-04 <-- DLTA
 ------------------------------------------------------------------------------
 Cycle:     10
  WF centre and spread    1  (  0.710614,  0.710614,  0.710614 )     1.11275110
  WF centre and spread    2  (  0.710614, -0.710614, -0.710614 )     1.11275111
  WF centre and spread    3  ( -0.710614,  0.710614, -0.710614 )     1.11275110
  WF centre and spread    4  ( -0.710614, -0.710614,  0.710614 )     1.11275110
  Sum of centres and spreads ( -0.000000,  0.000000, -0.000000 )     4.45100441

     10    -0.143E-04     0.0026531386        4.4510041690       0.10  <-- CONV
        O_D=      0.0042150 O_OD=      0.6092823 O_TOT=      4.4510042 <-- SPRD
 Delta: O_D= -0.9679130E-05 O_OD= -0.4590612E-05 O_TOT= -0.1426974E-04 <-- DLTA
 ------------------------------------------------------------------------------
 Cycle:     11
  WF centre and spread    1  (  0.710615,  0.710615,  0.710615 )     1.11274988
  WF centre and spread    2  (  0.710615, -0.710615, -0.710615 )     1.11274989
  WF centre and spread    3  ( -0.710615,  0.710615, -0.710615 )     1.11274988
  WF centre and spread    4  ( -0.710615, -0.710615,  0.710615 )     1.11274987
  Sum of centres and spreads ( -0.000000,  0.000000, -0.000000 )     4.45099952

     11    -0.489E-05     0.0015249400        4.4509992785       0.12  <-- CONV
        O_D=      0.0042091 O_OD=      0.6092833 O_TOT=      4.4509993 <-- SPRD
 Delta: O_D= -0.5862661E-05 O_OD=  0.9722229E-06 O_TOT= -0.4890438E-05 <-- DLTA
 ------------------------------------------------------------------------------
 Cycle:     12
  WF centre and spread    1  (  0.710616,  0.710616,  0.710616 )     1.11274964
  WF centre and spread    2  (  0.710616, -0.710616, -0.710616 )     1.11274964
  WF centre and spread    3  ( -0.710616,  0.710616, -0.710616 )     1.11274963
  WF centre and spread    4  ( -0.710616, -0.710616,  0.710616 )     1.11274963
  Sum of centres and spreads ( -0.000000,  0.000000, -0.000000 )     4.45099854

     12    -0.984E-06     0.0006636885        4.4509982948       0.13  <-- CONV
        O_D=      0.0042063 O_OD=      0.6092851 O_TOT=      4.4509983 <-- SPRD
 Delta: O_D= -0.2786787E-05 O_OD=  0.1803107E-05 O_TOT= -0.9836806E-06 <-- DLTA
 ------------------------------------------------------------------------------
 Cycle:     13
  WF centre and spread    1  (  0.710616,  0.710616,  0.710616 )     1.11274959
  WF centre and spread    2  (  0.710616, -0.710616, -0.710616 )     1.11274960
  WF centre and spread    3  ( -0.710616,  0.710616, -0.710616 )     1.11274959
  WF centre and spread    4  ( -0.710616, -0.710616,  0.710616 )     1.11274958
  Sum of centres and spreads ( -0.000000,  0.000000, -0.000000 )     4.45099836

     13    -0.176E-06     0.0002898304        4.4509981193       0.14  <-- CONV
        O_D=      0.0042056 O_OD=      0.6092856 O_TOT=      4.4509981 <-- SPRD
 Delta: O_D= -0.7489053E-06 O_OD=  0.5733288E-06 O_TOT= -0.1755765E-06 <-- DLTA
 ------------------------------------------------------------------------------
 Cycle:     14
  WF centre and spread    1  (  0.710617,  0.710617,  0.710617 )     1.11274956
  WF centre and spread    2  (  0.710617, -0.710617, -0.710617 )     1.11274957
  WF centre and spread    3  ( -0.710617,  0.710617, -0.710617 )     1.11274955
  WF centre and spread    4  ( -0.710617, -0.710617,  0.710617 )     1.11274955
  Sum of centres and spreads ( -0.000000,  0.000000, -0.000000 )     4.45099824

     14    -0.125E-06     0.0002062541        4.4509979938       0.16  <-- CONV
        O_D=      0.0042043 O_OD=      0.6092867 O_TOT=      4.4509980 <-- SPRD
 Delta: O_D= -0.1226702E-05 O_OD=  0.1101275E-05 O_TOT= -0.1254267E-06 <-- DLTA
 ------------------------------------------------------------------------------
 Cycle:     15
  WF centre and spread    1  (  0.710617,  0.710617,  0.710617 )     1.11274955
  WF centre and spread    2  (  0.710617, -0.710617, -0.710617 )     1.11274956
  WF centre and spread    3  ( -0.710617,  0.710617, -0.710617 )     1.11274955
  WF centre and spread    4  ( -0.710617, -0.710617,  0.710617 )     1.11274955
  Sum of centres and spreads ( -0.000000,  0.000000, -0.000000 )     4.45099821

     15    -0.275E-07     0.0001236238        4.4509979664       0.17  <-- CONV
        O_D=      0.0042039 O_OD=      0.6092871 O_TOT=      4.4509980 <-- SPRD
 Delta: O_D= -0.3913232E-06 O_OD=  0.3638399E-06 O_TOT= -0.2748323E-07 <-- DLTA
 ------------------------------------------------------------------------------
 Cycle:     16
  WF centre and spread    1  (  0.710617,  0.710617,  0.710617 )     1.11274955
  WF centre and spread    2  (  0.710617, -0.710617, -0.710617 )     1.11274956
  WF centre and spread    3  ( -0.710617,  0.710617, -0.710617 )     1.11274955
  WF centre and spread    4  ( -0.710617, -0.710617,  0.710617 )     1.11274954
  Sum of centres and spreads ( -0.000000,  0.000000, -0.000000 )     4.45099820

     16    -0.786E-08     0.0000588449        4.4509979585       0.18  <-- CONV
        O_D=      0.0042038 O_OD=      0.6092872 O_TOT=      4.4509980 <-- SPRD
 Delta: O_D= -0.1409594E-06 O_OD=  0.1330988E-06 O_TOT= -0.7860664E-08 <-- DLTA
 ------------------------------------------------------------------------------
 Cycle:     17
  WF centre and spread    1  (  0.710617,  0.710617,  0.710617 )     1.11274955
  WF centre and spread    2  (  0.710617, -0.710617, -0.710617 )     1.11274956
  WF centre and spread    3  ( -0.710617,  0.710617, -0.710617 )     1.11274954
  WF centre and spread    4  ( -0.710617, -0.710617,  0.710617 )     1.11274954
  Sum of centres and spreads ( -0.000000,  0.000000, -0.000000 )     4.45099820

     17    -0.195E-08     0.0000331084        4.4509979565       0.20  <-- CONV
        O_D=      0.0042038 O_OD=      0.6092873 O_TOT=      4.4509980 <-- SPRD
 Delta: O_D= -0.3156876E-07 O_OD=  0.2961864E-07 O_TOT= -0.1950124E-08 <-- DLTA
 ------------------------------------------------------------------------------
 Cycle:     18
  WF centre and spread    1  (  0.710617,  0.710617,  0.710617 )     1.11274955
  WF centre and spread    2  (  0.710617, -0.710617, -0.710617 )     1.11274956
  WF centre and spread    3  ( -0.710617,  0.710617, -0.710617 )     1.11274954
  WF centre and spread    4  ( -0.710617, -0.710617,  0.710617 )     1.11274954
  Sum of centres and spreads ( -0.000000,  0.000000, -0.000000 )     4.45099820

     18    -0.573E-09     0.0000163482        4.4509979560       0.21  <-- CONV
        O_D=      0.0042038 O_OD=      0.6092873 O_TOT=      4.4509980 <-- SPRD
 Delta: O_D= -0.6593369E-08 O_OD=  0.6019986E-08 O_TOT= -0.5733831E-09 <-- DLTA
 ------------------------------------------------------------------------------
 Cycle:     19
  WF centre and spread    1  (  0.710617,  0.710617,  0.710617 )     1.11274955
  WF centre and spread    2  (  0.710617, -0.710617, -0.710617 )     1.11274956
  WF centre and spread    3  ( -0.710617,  0.710617, -0.710617 )     1.11274954
  WF centre and spread    4  ( -0.710617, -0.710617,  0.710617 )     1.11274954
  Sum of centres and spreads ( -0.000000,  0.000000, -0.000000 )     4.45099820

     19    -0.130E-09     0.0000088229        4.4509979558       0.22  <-- CONV
        O_D=      0.0042038 O_OD=      0.6092873 O_TOT=      4.4509980 <-- SPRD
 Delta: O_D= -0.1692373E-08 O_OD=  0.1562761E-08 O_TOT= -0.1296119E-09 <-- DLTA
 ------------------------------------------------------------------------------
 Cycle:     20
  WF centre and spread    1  (  0.710617,  0.710617,  0.710617 )     1.11274955
  WF centre and spread    2  (  0.710617, -0.710617, -0.710617 )     1.11274956
  WF centre and spread    3  ( -0.710617,  0.710617, -0.710617 )     1.11274954
  WF centre and spread    4  ( -0.710617, -0.710617,  0.710617 )     1.11274954
  Sum of centres and spreads ( -0.000000,  0.000000, -0.000000 )     4.45099820

     20    -0.804E-10     0.0000048409        4.4509979558       0.24  <-- CONV
        O_D=      0.0042038 O_OD=      0.6092873 O_TOT=      4.4509980 <-- SPRD
 Delta: O_D= -0.4570132E-08 O_OD=  0.4489779E-08 O_TOT= -0.8035261E-10 <-- DLTA
 ------------------------------------------------------------------------------
 Cycle:     21
  WF centre and spread    1  (  0.710617,  0.710617,  0.710617 )     1.11274955
  WF centre and spread    2  (  0.710617, -0.710617, -0.710617 )     1.11274956
  WF centre and spread    3  ( -0.710617,  0.710617, -0.710617 )     1.11274954
  WF centre and spread    4  ( -0.710617, -0.710617,  0.710617 )     1.11274954
  Sum of centres and spreads ( -0.000000,  0.000000, -0.000000 )     4.45099820

     21     0.490E-11     0.0000041471        4.4509979558       0.25  <-- CONV
        O_D=      0.0042038 O_OD=      0.6092873 O_TOT=      4.4509980 <-- SPRD
 Delta: O_D= -0.9096377E-08 O_OD=  0.9101276E-08 O_TOT=  0.4899192E-11 <-- DLTA
 ------------------------------------------------------------------------------
 Cycle:     22
  WF centre and spread    1  (  0.710617,  0.710617,  0.710617 )     1.11274955
  WF centre and spread    2  (  0.710617, -0.710617, -0.710617 )     1.11274956
  WF centre and spread    3  ( -0.710617,  0.710617, -0.710617 )     1.11274954
  WF centre and spread    4  ( -0.710617, -0.710617,  0.710617 )     1.11274954
  Sum of centres and spreads ( -0.000000,  0.000000, -0.000000 )     4.45099820

     22    -0.596E-12     0.0000045335        4.4509979558       0.26  <-- CONV
        O_D=      0.0042038 O_OD=      0.6092873 O_TOT=      4.4509980 <-- SPRD
 Delta: O_D= -0.2036370E-10 O_OD=  0.1976785E-10 O_TOT= -0.5959677E-12 <-- DLTA
 ------------------------------------------------------------------------------
 Cycle:     23
  WF centre and spread    1  (  0.710617,  0.710617,  0.710617 )     1.11274955
  WF centre and spread    2  (  0.710617, -0.710617, -0.710617 )     1.11274956
  WF centre and spread    3  ( -0.710617,  0.710617, -0.710617 )     1.11274954
  WF centre and spread    4  ( -0.710617, -0.710617,  0.710617 )     1.11274954
  Sum of centres and spreads ( -0.000000,  0.000000, -0.000000 )     4.45099820

     23    -0.301E-10     0.0000044935        4.4509979557       0.27  <-- CONV
        O_D=      0.0042038 O_OD=      0.6092873 O_TOT=      4.4509980 <-- SPRD
 Delta: O_D= -0.1604951E-08 O_OD=  0.1574868E-08 O_TOT= -0.3008260E-10 <-- DLTA
 ------------------------------------------------------------------------------
 Cycle:     24
  WF centre and spread    1  (  0.710617,  0.710617,  0.710617 )     1.11274955
  WF centre and spread    2  (  0.710617, -0.710617, -0.710617 )     1.11274956
  WF centre and spread    3  ( -0.710617,  0.710617, -0.710617 )     1.11274954
  WF centre and spread    4  ( -0.710617, -0.710617,  0.710617 )     1.11274954
  Sum of centres and spreads ( -0.000000,  0.000000, -0.000000 )     4.45099820

     24    -0.108E-10     0.0000021927        4.4509979557       0.29  <-- CONV
        O_D=      0.0042037 O_OD=      0.6092873 O_TOT=      4.4509980 <-- SPRD
[...]
 Delta: O_D= -0.1160091E-10 O_OD=  0.1159950E-10 O_TOT= -0.1776357E-14 <-- DLTA
 ------------------------------------------------------------------------------
 Cycle:    277
  WF centre and spread    1  (  0.710616,  0.710616,  0.710616 )     1.11275389
  WF centre and spread    2  (  0.710616, -0.710616, -0.710616 )     1.11275391
  WF centre and spread    3  ( -0.710616,  0.710616, -0.710616 )     1.11275387
  WF centre and spread    4  ( -0.710616, -0.710616,  0.710616 )     1.11275389
  Sum of centres and spreads ( -0.000000,  0.000000, -0.000000 )     4.45101555

    277     0.000E+00     0.0000000982        4.4510153107       2.63  <-- CONV
        O_D=      0.0042038 O_OD=      0.6092881 O_TOT=      4.4510153 <-- SPRD
 Delta: O_D= -0.1931338E-11 O_OD=  0.1931566E-11 O_TOT=  0.0000000E+00 <-- DLTA
 ------------------------------------------------------------------------------
 Cycle:    278
  WF centre and spread    1  (  0.710616,  0.710616,  0.710616 )     1.11275389
  WF centre and spread    2  (  0.710616, -0.710616, -0.710616 )     1.11275391
  WF centre and spread    3  ( -0.710616,  0.710616, -0.710616 )     1.11275387
  WF centre and spread    4  ( -0.710616, -0.710616,  0.710616 )     1.11275389
  Sum of centres and spreads ( -0.000000,  0.000000, -0.000000 )     4.45101555

    278     0.178E-14     0.0000000980        4.4510153107       2.64  <-- CONV
        O_D=      0.0042038 O_OD=      0.6092881 O_TOT=      4.4510153 <-- SPRD
 Delta: O_D= -0.2596716E-12 O_OD=  0.2607914E-12 O_TOT=  0.1776357E-14 <-- DLTA
 ------------------------------------------------------------------------------
 Cycle:    279
  WF centre and spread    1  (  0.710616,  0.710616,  0.710616 )     1.11275389
  WF centre and spread    2  (  0.710616, -0.710616, -0.710616 )     1.11275391
  WF centre and spread    3  ( -0.710616,  0.710616, -0.710616 )     1.11275387
  WF centre and spread    4  ( -0.710616, -0.710616,  0.710616 )     1.11275389
  Sum of centres and spreads ( -0.000000,  0.000000, -0.000000 )     4.45101555

    279    -0.888E-15     0.0000000980        4.4510153107       2.65  <-- CONV
        O_D=      0.0042038 O_OD=      0.6092881 O_TOT=      4.4510153 <-- SPRD
 Delta: O_D= -0.1395710E-11 O_OD=  0.1395217E-11 O_TOT= -0.8881784E-15 <-- DLTA
 ------------------------------------------------------------------------------
 Cycle:    280
  WF centre and spread    1  (  0.710616,  0.710616,  0.710616 )     1.11275389
  WF centre and spread    2  (  0.710616, -0.710616, -0.710616 )     1.11275391
  WF centre and spread    3  ( -0.710616,  0.710616, -0.710616 )     1.11275387
  WF centre and spread    4  ( -0.710616, -0.710616,  0.710616 )     1.11275389
  Sum of centres and spreads ( -0.000000,  0.000000, -0.000000 )     4.45101555

    280     0.178E-14     0.0000000978        4.4510153107       2.66  <-- CONV
        O_D=      0.0042038 O_OD=      0.6092881 O_TOT=      4.4510153 <-- SPRD
 Delta: O_D= -0.1472144E-11 O_OD=  0.1473710E-11 O_TOT=  0.1776357E-14 <-- DLTA
 ------------------------------------------------------------------------------
 Cycle:    281
  WF centre and spread    1  (  0.710616,  0.710616,  0.710616 )     1.11275389
  WF centre and spread    2  (  0.710616, -0.710616, -0.710616 )     1.11275391
  WF centre and spread    3  ( -0.710616,  0.710616, -0.710616 )     1.11275387
  WF centre and spread    4  ( -0.710616, -0.710616,  0.710616 )     1.11275389
  Sum of centres and spreads ( -0.000000,  0.000000, -0.000000 )     4.45101555

    281    -0.888E-15     0.0000000977        4.4510153107       2.67  <-- CONV
        O_D=      0.0042038 O_OD=      0.6092881 O_TOT=      4.4510153 <-- SPRD
 Delta: O_D= -0.9585407E-11 O_OD=  0.9584888E-11 O_TOT= -0.8881784E-15 <-- DLTA
 ------------------------------------------------------------------------------
 Cycle:    282
  WF centre and spread    1  (  0.710616,  0.710616,  0.710616 )     1.11275389
  WF centre and spread    2  (  0.710616, -0.710616, -0.710616 )     1.11275391
  WF centre and spread    3  ( -0.710616,  0.710616, -0.710616 )     1.11275387
  WF centre and spread    4  ( -0.710616, -0.710616,  0.710616 )     1.11275389
  Sum of centres and spreads ( -0.000000,  0.000000, -0.000000 )     4.45101555

    282    -0.977E-14     0.0000000967        4.4510153107       2.68  <-- CONV
        O_D=      0.0042038 O_OD=      0.6092881 O_TOT=      4.4510153 <-- SPRD
 Delta: O_D= -0.1130451E-10 O_OD=  0.1129441E-10 O_TOT= -0.9769963E-14 <-- DLTA
 ------------------------------------------------------------------------------
 Cycle:    283
  WF centre and spread    1  (  0.710616,  0.710616,  0.710616 )     1.11275389
  WF centre and spread    2  (  0.710616, -0.710616, -0.710616 )     1.11275391
  WF centre and spread    3  ( -0.710616,  0.710616, -0.710616 )     1.11275387
  WF centre and spread    4  ( -0.710616, -0.710616,  0.710616 )     1.11275389
  Sum of centres and spreads ( -0.000000,  0.000000, -0.000000 )     4.45101555

    283     0.622E-14     0.0000000956        4.4510153107       2.69  <-- CONV
        O_D=      0.0042038 O_OD=      0.6092881 O_TOT=      4.4510153 <-- SPRD
 Delta: O_D= -0.3377246E-13 O_OD=  0.3974598E-13 O_TOT=  0.6217249E-14 <-- DLTA
 ------------------------------------------------------------------------------
 Cycle:    284
  WF centre and spread    1  (  0.710616,  0.710616,  0.710616 )     1.11275389
  WF centre and spread    2  (  0.710616, -0.710616, -0.710616 )     1.11275391
  WF centre and spread    3  ( -0.710616,  0.710616, -0.710616 )     1.11275387
  WF centre and spread    4  ( -0.710616, -0.710616,  0.710616 )     1.11275389
  Sum of centres and spreads ( -0.000000,  0.000000, -0.000000 )     4.45101555

    284     0.000E+00     0.0000000956        4.4510153107       2.70  <-- CONV
        O_D=      0.0042038 O_OD=      0.6092881 O_TOT=      4.4510153 <-- SPRD
 Delta: O_D= -0.3773024E-11 O_OD=  0.3773537E-11 O_TOT=  0.0000000E+00 <-- DLTA
 ------------------------------------------------------------------------------
 Cycle:    285
  WF centre and spread    1  (  0.710616,  0.710616,  0.710616 )     1.11275389
  WF centre and spread    2  (  0.710616, -0.710616, -0.710616 )     1.11275391
  WF centre and spread    3  ( -0.710616,  0.710616, -0.710616 )     1.11275387
  WF centre and spread    4  ( -0.710616, -0.710616,  0.710616 )     1.11275389
  Sum of centres and spreads ( -0.000000,  0.000000, -0.000000 )     4.45101555

    285    -0.355E-14     0.0000000952        4.4510153107       2.71  <-- CONV
        O_D=      0.0042038 O_OD=      0.6092881 O_TOT=      4.4510153 <-- SPRD
 Delta: O_D= -0.1317371E-11 O_OD=  0.1314060E-11 O_TOT= -0.3552714E-14 <-- DLTA
 ------------------------------------------------------------------------------
 Cycle:    286
  WF centre and spread    1  (  0.710616,  0.710616,  0.710616 )     1.11275389
  WF centre and spread    2  (  0.710616, -0.710616, -0.710616 )     1.11275391
  WF centre and spread    3  ( -0.710616,  0.710616, -0.710616 )     1.11275387
  WF centre and spread    4  ( -0.710616, -0.710616,  0.710616 )     1.11275389
  Sum of centres and spreads ( -0.000000,  0.000000, -0.000000 )     4.45101555

    286     0.888E-15     0.0000000951        4.4510153107       2.72  <-- CONV
        O_D=      0.0042038 O_OD=      0.6092881 O_TOT=      4.4510153 <-- SPRD
 Delta: O_D= -0.4311603E-12 O_OD=  0.4315437E-12 O_TOT=  0.8881784E-15 <-- DLTA
 ------------------------------------------------------------------------------
 Cycle:    287
  WF centre and spread    1  (  0.710616,  0.710616,  0.710616 )     1.11275389
  WF centre and spread    2  (  0.710616, -0.710616, -0.710616 )     1.11275391
  WF centre and spread    3  ( -0.710616,  0.710616, -0.710616 )     1.11275387
  WF centre and spread    4  ( -0.710616, -0.710616,  0.710616 )     1.11275389
  Sum of centres and spreads ( -0.000000,  0.000000, -0.000000 )     4.45101555

    287     0.444E-14     0.0000000950        4.4510153107       2.73  <-- CONV
        O_D=      0.0042038 O_OD=      0.6092881 O_TOT=      4.4510153 <-- SPRD
 Delta: O_D= -0.2779272E-11 O_OD=  0.2783551E-11 O_TOT=  0.4440892E-14 <-- DLTA
 ------------------------------------------------------------------------------
 Cycle:    288
  WF centre and spread    1  (  0.710616,  0.710616,  0.710616 )     1.11275389
  WF centre and spread    2  (  0.710616, -0.710616, -0.710616 )     1.11275391
  WF centre and spread    3  ( -0.710616,  0.710616, -0.710616 )     1.11275387
  WF centre and spread    4  ( -0.710616, -0.710616,  0.710616 )     1.11275389
  Sum of centres and spreads ( -0.000000,  0.000000, -0.000000 )     4.45101555

    288    -0.622E-14     0.0000000948        4.4510153107       2.74  <-- CONV
        O_D=      0.0042038 O_OD=      0.6092881 O_TOT=      4.4510153 <-- SPRD
 Delta: O_D= -0.1117410E-10 O_OD=  0.1116796E-10 O_TOT= -0.6217249E-14 <-- DLTA
 ------------------------------------------------------------------------------
 Cycle:    289
  WF centre and spread    1  (  0.710616,  0.710616,  0.710616 )     1.11275389
  WF centre and spread    2  (  0.710616, -0.710616, -0.710616 )     1.11275391
  WF centre and spread    3  ( -0.710616,  0.710616, -0.710616 )     1.11275387
  WF centre and spread    4  ( -0.710616, -0.710616,  0.710616 )     1.11275389
  Sum of centres and spreads ( -0.000000,  0.000000, -0.000000 )     4.45101555

    289     0.888E-15     0.0000000937        4.4510153107       2.75  <-- CONV
        O_D=      0.0042038 O_OD=      0.6092881 O_TOT=      4.4510153 <-- SPRD
 Delta: O_D= -0.6163299E-13 O_OD=  0.6272760E-13 O_TOT=  0.8881784E-15 <-- DLTA
 ------------------------------------------------------------------------------
 Cycle:    290
  WF centre and spread    1  (  0.710616,  0.710616,  0.710616 )     1.11275389
  WF centre and spread    2  (  0.710616, -0.710616, -0.710616 )     1.11275391
  WF centre and spread    3  ( -0.710616,  0.710616, -0.710616 )     1.11275387
  WF centre and spread    4  ( -0.710616, -0.710616,  0.710616 )     1.11275389
  Sum of centres and spreads ( -0.000000,  0.000000, -0.000000 )     4.45101555

    290    -0.711E-14     0.0000000937        4.4510153107       2.75  <-- CONV
        O_D=      0.0042038 O_OD=      0.6092881 O_TOT=      4.4510153 <-- SPRD
 Delta: O_D= -0.3705665E-11 O_OD=  0.3698597E-11 O_TOT= -0.7105427E-14 <-- DLTA
 ------------------------------------------------------------------------------
 Cycle:    291
  WF centre and spread    1  (  0.710616,  0.710616,  0.710616 )     1.11275389
  WF centre and spread    2  (  0.710616, -0.710616, -0.710616 )     1.11275391
  WF centre and spread    3  ( -0.710616,  0.710616, -0.710616 )     1.11275387
  WF centre and spread    4  ( -0.710616, -0.710616,  0.710616 )     1.11275389
  Sum of centres and spreads ( -0.000000,  0.000000, -0.000000 )     4.45101555

    291     0.115E-13     0.0000000933        4.4510153107       2.76  <-- CONV
        O_D=      0.0042038 O_OD=      0.6092881 O_TOT=      4.4510153 <-- SPRD
 Delta: O_D= -0.3413155E-12 O_OD=  0.3524958E-12 O_TOT=  0.1154632E-13 <-- DLTA
 ------------------------------------------------------------------------------
 Cycle:    292
  WF centre and spread    1  (  0.710616,  0.710616,  0.710616 )     1.11275389
  WF centre and spread    2  (  0.710616, -0.710616, -0.710616 )     1.11275391
  WF centre and spread    3  ( -0.710616,  0.710616, -0.710616 )     1.11275387
  WF centre and spread    4  ( -0.710616, -0.710616,  0.710616 )     1.11275389
  Sum of centres and spreads ( -0.000000,  0.000000, -0.000000 )     4.45101555

    292    -0.622E-14     0.0000000933        4.4510153107       2.77  <-- CONV
        O_D=      0.0042038 O_OD=      0.6092881 O_TOT=      4.4510153 <-- SPRD
 Delta: O_D= -0.7365105E-11 O_OD=  0.7358669E-11 O_TOT= -0.6217249E-14 <-- DLTA
 ------------------------------------------------------------------------------
 Cycle:    293
  WF centre and spread    1  (  0.710616,  0.710616,  0.710616 )     1.11275389
  WF centre and spread    2  (  0.710616, -0.710616, -0.710616 )     1.11275391
  WF centre and spread    3  ( -0.710616,  0.710616, -0.710616 )     1.11275387
  WF centre and spread    4  ( -0.710616, -0.710616,  0.710616 )     1.11275389
  Sum of centres and spreads ( -0.000000,  0.000000, -0.000000 )     4.45101555

    293    -0.888E-15     0.0000000925        4.4510153107       2.78  <-- CONV
        O_D=      0.0042038 O_OD=      0.6092881 O_TOT=      4.4510153 <-- SPRD
 Delta: O_D= -0.7478020E-12 O_OD=  0.7472911E-12 O_TOT= -0.8881784E-15 <-- DLTA
 ------------------------------------------------------------------------------
 Cycle:    294
  WF centre and spread    1  (  0.710616,  0.710616,  0.710616 )     1.11275389
  WF centre and spread    2  (  0.710616, -0.710616, -0.710616 )     1.11275391
  WF centre and spread    3  ( -0.710616,  0.710616, -0.710616 )     1.11275387
  WF centre and spread    4  ( -0.710616, -0.710616,  0.710616 )     1.11275389
  Sum of centres and spreads ( -0.000000,  0.000000, -0.000000 )     4.45101555

    294    -0.266E-14     0.0000000925        4.4510153107       2.79  <-- CONV
        O_D=      0.0042038 O_OD=      0.6092881 O_TOT=      4.4510153 <-- SPRD
 Delta: O_D= -0.1177866E-11 O_OD=  0.1175393E-11 O_TOT= -0.2664535E-14 <-- DLTA
 ------------------------------------------------------------------------------
 Cycle:    295
  WF centre and spread    1  (  0.710616,  0.710616,  0.710616 )     1.11275389
  WF centre and spread    2  (  0.710616, -0.710616, -0.710616 )     1.11275391
  WF centre and spread    3  ( -0.710616,  0.710616, -0.710616 )     1.11275387
  WF centre and spread    4  ( -0.710616, -0.710616,  0.710616 )     1.11275389
  Sum of centres and spreads ( -0.000000,  0.000000, -0.000000 )     4.45101555

    295     0.888E-15     0.0000000923        4.4510153107       2.81  <-- CONV
        O_D=      0.0042038 O_OD=      0.6092881 O_TOT=      4.4510153 <-- SPRD
 Delta: O_D= -0.7736173E-13 O_OD=  0.7871481E-13 O_TOT=  0.8881784E-15 <-- DLTA
 ------------------------------------------------------------------------------
 Cycle:    296
  WF centre and spread    1  (  0.710616,  0.710616,  0.710616 )     1.11275389
  WF centre and spread    2  (  0.710616, -0.710616, -0.710616 )     1.11275391
  WF centre and spread    3  ( -0.710616,  0.710616, -0.710616 )     1.11275387
  WF centre and spread    4  ( -0.710616, -0.710616,  0.710616 )     1.11275389
  Sum of centres and spreads ( -0.000000,  0.000000, -0.000000 )     4.45101555

    296     0.000E+00     0.0000000923        4.4510153107       2.81  <-- CONV
        O_D=      0.0042038 O_OD=      0.6092881 O_TOT=      4.4510153 <-- SPRD
 Delta: O_D= -0.3659418E-11 O_OD=  0.3659184E-11 O_TOT=  0.0000000E+00 <-- DLTA
 ------------------------------------------------------------------------------
 Cycle:    297
  WF centre and spread    1  (  0.710616,  0.710616,  0.710616 )     1.11275389
  WF centre and spread    2  (  0.710616, -0.710616, -0.710616 )     1.11275391
  WF centre and spread    3  ( -0.710616,  0.710616, -0.710616 )     1.11275387
  WF centre and spread    4  ( -0.710616, -0.710616,  0.710616 )     1.11275389
  Sum of centres and spreads ( -0.000000,  0.000000, -0.000000 )     4.45101555

    297     0.000E+00     0.0000000920        4.4510153107       2.82  <-- CONV
        O_D=      0.0042038 O_OD=      0.6092881 O_TOT=      4.4510153 <-- SPRD
 Delta: O_D= -0.5454292E-11 O_OD=  0.5454415E-11 O_TOT=  0.0000000E+00 <-- DLTA
 ------------------------------------------------------------------------------
 Cycle:    298
  WF centre and spread    1  (  0.710616,  0.710616,  0.710616 )     1.11275389
  WF centre and spread    2  (  0.710616, -0.710616, -0.710616 )     1.11275391
  WF centre and spread    3  ( -0.710616,  0.710616, -0.710616 )     1.11275387
  WF centre and spread    4  ( -0.710616, -0.710616,  0.710616 )     1.11275389
  Sum of centres and spreads ( -0.000000,  0.000000, -0.000000 )     4.45101555

    298     0.178E-14     0.0000000914        4.4510153107       2.83  <-- CONV
        O_D=      0.0042038 O_OD=      0.6092881 O_TOT=      4.4510153 <-- SPRD
 Delta: O_D= -0.5492794E-12 O_OD=  0.5506706E-12 O_TOT=  0.1776357E-14 <-- DLTA
 ------------------------------------------------------------------------------
 Cycle:    299
  WF centre and spread    1  (  0.710616,  0.710616,  0.710616 )     1.11275389
  WF centre and spread    2  (  0.710616, -0.710616, -0.710616 )     1.11275391
  WF centre and spread    3  ( -0.710616,  0.710616, -0.710616 )     1.11275387
  WF centre and spread    4  ( -0.710616, -0.710616,  0.710616 )     1.11275389
  Sum of centres and spreads ( -0.000000,  0.000000, -0.000000 )     4.45101555

    299    -0.178E-14     0.0000000914        4.4510153107       2.84  <-- CONV
        O_D=      0.0042038 O_OD=      0.6092881 O_TOT=      4.4510153 <-- SPRD
 Delta: O_D= -0.8268074E-12 O_OD=  0.8247847E-12 O_TOT= -0.1776357E-14 <-- DLTA
 ------------------------------------------------------------------------------
 Cycle:    300
  WF centre and spread    1  (  0.710616,  0.710616,  0.710616 )     1.11275389
  WF centre and spread    2  (  0.710616, -0.710616, -0.710616 )     1.11275391
  WF centre and spread    3  ( -0.710616,  0.710616, -0.710616 )     1.11275387
  WF centre and spread    4  ( -0.710616, -0.710616,  0.710616 )     1.11275389
  Sum of centres and spreads ( -0.000000,  0.000000, -0.000000 )     4.45101555

    300     0.711E-14     0.0000000913        4.4510153107       2.85  <-- CONV
        O_D=      0.0042038 O_OD=      0.6092881 O_TOT=      4.4510153 <-- SPRD
 Delta: O_D= -0.1891376E-11 O_OD=  0.1899036E-11 O_TOT=  0.7105427E-14 <-- DLTA
 ------------------------------------------------------------------------------

 Writing checkpoint file sic.chk... done

 Final State
  WF centre and spread    1  (  0.710616,  0.710616,  0.710616 )     1.11275389
  WF centre and spread    2  (  0.710616, -0.710616, -0.710616 )     1.11275391
  WF centre and spread    3  ( -0.710616,  0.710616, -0.710616 )     1.11275387
  WF centre and spread    4  ( -0.710616, -0.710616,  0.710616 )     1.11275389
  Sum of centres and spreads ( -0.000000,  0.000000, -0.000000 )     4.45101555

         Spreads (Ang^2)       Omega I      =     3.837523438
        ================       Omega D      =     0.004203820
                               Omega OD     =     0.609288052
    Final Spread (Ang^2)       Omega Total  =     4.451015311
 ------------------------------------------------------------------------------

 Writing checkpoint file sic.chk... done

 Time for wannierise            2.860 (sec)
 *---------------------------------------------------------------------------*
 |                               PLOTTING                                    |
 *---------------------------------------------------------------------------*

 Time for plotting              0.571 (sec)
 Total Execution Time           5.400 (sec)

 *===========================================================================*
 |                             TIMING INFORMATION                            |
 *===========================================================================*
 |    Tag                                                Ncalls      Time (s)|
 |---------------------------------------------------------------------------|
 |kmesh: get                                        :         2         3.992|
 |kmesh: write                                      :         1         0.002|
 |overlap: allocate                                 :         1         0.000|
 |wann: main                                        :         1         2.858|
 |plot: main                                        :         1         0.571|
 *---------------------------------------------------------------------------*

 All done: wannier90 exiting
